LAMMPS (23 Jun 2022 - Update 4)
  using 1 OpenMP thread(s) per MPI task
# created by fftool

# System settings
units real
boundary p p p  # Periodic boundary conditions

# definition of atoms, bonds, angles
atom_style full
bond_style harmonic
angle_style harmonic

# definition of pair potentials
special_bonds lj/coul 0.0 0.0 0.5
pair_style lj/cut/coul/long 10.0 10.0
pair_modify mix geometric tail yes
kspace_style pppm 1.0e-5

# read data file
read_data data.lmp
Reading data file ...
  orthogonal box = (0 0 0) to (15.660478 15.660478 15.660478)
  1 by 1 by 2 MPI processor grid
  reading atoms ...
  384 atoms
  scanning bonds ...
  1 = max bonds/atom
  scanning angles ...
  1 = max angles/atom
  reading bonds ...
  256 bonds
  reading angles ...
  128 angles
Finding 1-2 1-3 1-4 neighbors ...
  special bond factors lj:    0        0        0.5
  special bond factors coul:  0        0        0.5
     2 = max # of 1-2 neighbors
     1 = max # of 1-3 neighbors
     1 = max # of 1-4 neighbors
     2 = max # of special neighbors
  special bonds CPU = 0.000 seconds
  read_data CPU = 0.006 seconds

# definition of LJ parameters
pair_coeff    1    1     0.000000     0.000000  # Hw Hw
pair_coeff    2    2     0.163785     3.164813  # Ow-Ow

############################################

# remove energy hotspots
minimize 1.0e-4 1.0e-6 100 1000
WARNING: Using 'neigh_modify every 1 delay 0 check yes' setting during minimization (src/min.cpp:187)
PPPM initialization ...
  using 12-bit tables for long-range coulomb (src/kspace.cpp:342)
  G vector (1/distance) = 0.31203871
  grid = 15 15 15
  stencil order = 5
  estimated absolute RMS force accuracy = 0.0022228175
  estimated relative force accuracy = 6.6939488e-06
  using double precision FFTW3
  3d grid and FFT values/proc = 6776 1800
Generated 1 of 1 mixed pair_coeff terms from geometric mixing rule
Neighbor list info ...
  update every 1 steps, delay 0 steps, check yes
  max neighbors/atom: 2000, page size: 100000
  master list distance cutoff = 12
  ghost atom cutoff = 12
  binsize = 6, bins = 3 3 3
  1 neighbor lists, perpetual/occasional/extra = 1 0 0
  (1) pair lj/cut/coul/long, perpetual
      attributes: half, newton on
      pair build: half/bin/newton
      stencil: half/bin/3d
      bin: standard
Per MPI rank memory allocation (min/avg/max) = 8.677 | 8.677 | 8.677 Mbytes
   Step          Temp          E_pair         E_mol          TotEng         Press
         0   0              28981.693      6.3915617e-07  28981.693      2105057.7
       100   0             -1953.7701      151.89726     -1801.8729     -6930.3232
Loop time of 0.243514 on 2 procs for 100 steps with 384 atoms

99.5% CPU use with 2 MPI tasks x 1 OpenMP threads

Minimization stats:
  Stopping criterion = max iterations
  Energy initial, next-to-last, final =
      28981.6926877801  -1795.16007673775  -1801.87285819873
  Force two-norm initial, final = 138341.04 54.423336
  Force max component initial, final = 67989.371 10.746555
  Final line search alpha, max atom move = 0.0017531411 0.018840227
  Iterations, force evaluations = 100 171

MPI task timing breakdown:
Section |  min time  |  avg time  |  max time  |%varavg| %total
---------------------------------------------------------------
Pair    | 0.18232    | 0.18325    | 0.18418    |   0.2 | 75.25
Bond    | 0.00069743 | 0.001033   | 0.0013685  |   1.0 |  0.42
Kspace  | 0.036482   | 0.037746   | 0.039011   |   0.7 | 15.50
Neigh   | 0.0073358  | 0.0073361  | 0.0073363  |   0.0 |  3.01
Comm    | 0.012545   | 0.012596   | 0.012647   |   0.0 |  5.17
Output  | 1.4203e-05 | 1.6597e-05 | 1.899e-05  |   0.0 |  0.01
Modify  | 0          | 0          | 0          |   0.0 |  0.00
Other   |            | 0.001536   |            |       |  0.63

Nlocal:            192 ave         195 max         189 min
Histogram: 1 0 0 0 0 0 0 0 0 1
Nghost:         4822.5 ave        4830 max        4815 min
Histogram: 1 0 0 0 0 0 0 0 0 1
Neighs:          69367 ave       71255 max       67479 min
Histogram: 1 0 0 0 0 0 0 0 0 1

Total # of neighbors = 138734
Ave neighs/atom = 361.28646
Ave special neighs/atom = 2
Neighbor list builds = 5
Dangerous builds = 0
reset_timestep 0

# constrain water bonds and angles
fix fSHAKE all shake 0.0001 20 0 b 1 a 1
       0 = # of size 2 clusters
       0 = # of size 3 clusters
       0 = # of size 4 clusters
     128 = # of frozen angles
  find clusters CPU = 0.000 seconds

# remove Center of Mass movement every 100 steps
fix fMOM all momentum 100 linear 1 1 1

# define the neighbor list
neighbor 2.0 bin

# IMPORTANT: timestep and temperature and pressure
timestep 1.0
variable vTK equal 298.15
variable vPBAR equal 1.0

# randomize velocities
velocity all create ${vTK} 94711
velocity all create 298.15 94711

# thermostat (solving the ODE)
fix fTHERMO all nvt temp ${vTK} ${vTK} 100
fix fTHERMO all nvt temp 298.15 ${vTK} 100
fix fTHERMO all nvt temp 298.15 298.15 100

# print settings
thermo 1000
thermo_style custom step etotal ke pe temp press vol density
# trajectory output
dump dEQUI all custom 1000 equi.lammpstrj id element xu yu zu
dump_modify dEQUI element H O sort id

# equilibration
# 1 ns
run 1000000
PPPM initialization ...
  using 12-bit tables for long-range coulomb (src/kspace.cpp:342)
  G vector (1/distance) = 0.31203871
  grid = 15 15 15
  stencil order = 5
  estimated absolute RMS force accuracy = 0.0022228175
  estimated relative force accuracy = 6.6939488e-06
  using double precision FFTW3
  3d grid and FFT values/proc = 6776 1800
Generated 1 of 1 mixed pair_coeff terms from geometric mixing rule
Per MPI rank memory allocation (min/avg/max) = 9.715 | 9.715 | 9.715 Mbytes
   Step         TotEng         KinEng         PotEng          Temp          Press          Volume        Density
         0  -1727.1443      226.62577     -1953.7701      298.15        -1094.9529      3840.7412      0.99696119
      1000  -1292.961       231.43015     -1524.3912      304.47067     -2481.7324      3840.7412      0.99696119
      2000  -1307.1582      221.7864      -1528.9446      291.7833      -960.06988      3840.7412      0.99696119
      3000  -1312.6195      202.00473     -1514.6243      265.75843      1293.4186      3840.7412      0.99696119
      4000  -1281.7874      227.69475     -1509.4821      299.55636     -1644.1864      3840.7412      0.99696119
      5000  -1262.1665      220.07705     -1482.2435      289.53447      769.86237      3840.7412      0.99696119
      6000  -1280.3628      267.1294      -1547.4922      351.43678     -742.79465      3840.7412      0.99696119
      7000  -1303.7165      223.05342     -1526.77        293.45019     -399.54424      3840.7412      0.99696119
      8000  -1319.9151      230.86774     -1550.7829      303.73076      445.41932      3840.7412      0.99696119
      9000  -1330.2682      230.39954     -1560.6677      303.11478     -744.40692      3840.7412      0.99696119
     10000  -1304.0715      224.31948     -1528.3909      295.11583      835.68442      3840.7412      0.99696119
     11000  -1332.8257      210.33078     -1543.1565      276.71222      274.26527      3840.7412      0.99696119
     12000  -1269.6281      238.58027     -1508.2084      313.8774      -121.36773      3840.7412      0.99696119
     13000  -1313.6414      215.55694     -1529.1983      283.58778      461.71108      3840.7412      0.99696119
     14000  -1325.9436      229.87131     -1555.8149      302.41984     -1131.9347      3840.7412      0.99696119
     15000  -1347.8438      247.34941     -1595.1932      325.41412      29.475931      3840.7412      0.99696119
     16000  -1316.5724      233.18735     -1549.7597      306.78244      158.01972      3840.7412      0.99696119
     17000  -1324.2627      226.13454     -1550.3972      297.50374     -601.18131      3840.7412      0.99696119
     18000  -1307.0873      232.53908     -1539.6264      305.92958      217.24964      3840.7412      0.99696119
     19000  -1315.6432      239.33773     -1554.9809      314.87392     -305.52782      3840.7412      0.99696119
     20000  -1330.458       230.05743     -1560.5155      302.6647      -544.74948      3840.7412      0.99696119
     21000  -1307.3544      226.97766     -1534.332       298.61295     -897.06244      3840.7412      0.99696119
     22000  -1321.8761      221.28446     -1543.1606      291.12295     -888.92704      3840.7412      0.99696119
     23000  -1282.9791      229.48246     -1512.4615      301.90827     -330.66713      3840.7412      0.99696119
     24000  -1331.6706      215.61102     -1547.2816      283.65894      259.52724      3840.7412      0.99696119
     25000  -1274.9375      224.01412     -1498.9516      294.7141       134.83728      3840.7412      0.99696119
     26000  -1311.1012      229.94418     -1541.0453      302.51571      1738.49        3840.7412      0.99696119
     27000  -1312.7203      229.1296      -1541.8499      301.44405     -617.98357      3840.7412      0.99696119
     28000  -1303.1899      228.61963     -1531.8095      300.77313     -364.0726       3840.7412      0.99696119
     29000  -1282.6345      244.29234     -1526.9268      321.39223     -2665.6152      3840.7412      0.99696119
     30000  -1305.5237      228.70588     -1534.2296      300.88661     -184.24968      3840.7412      0.99696119
     31000  -1295.6378      230.53298     -1526.1708      303.29034     -2994.4173      3840.7412      0.99696119
     32000  -1266.6209      222.21196     -1488.8329      292.34317      1191.609       3840.7412      0.99696119
     33000  -1265.2127      241.76066     -1506.9733      318.06153      84.16907       3840.7412      0.99696119
     34000  -1318.6907      217.23143     -1535.9221      285.79076      447.25345      3840.7412      0.99696119
     35000  -1330.7874      226.57847     -1557.3658      298.08777     -528.70195      3840.7412      0.99696119
     36000  -1298.6739      240.60968     -1539.2836      316.5473       271.74377      3840.7412      0.99696119
     37000  -1310.797       227.33083     -1538.1278      299.07758     -218.22375      3840.7412      0.99696119
     38000  -1272.3836      244.7692      -1517.1528      322.01959     -856.03242      3840.7412      0.99696119
     39000  -1293.6241      239.85465     -1533.4787      315.55398      169.46368      3840.7412      0.99696119
     40000  -1298.7481      233.29663     -1532.0448      306.92622      863.88946      3840.7412      0.99696119
     41000  -1279.9141      222.5199      -1502.434       292.74829     -1608.9125      3840.7412      0.99696119
     42000  -1294.8306      245.27454     -1540.1052      322.68442     -793.08685      3840.7412      0.99696119
     43000  -1331.8539      215.75494     -1547.6088      283.84828      337.31059      3840.7412      0.99696119
     44000  -1260.8271      242.28504     -1503.1121      318.75141      496.87075      3840.7412      0.99696119
     45000  -1269.8545      245.43855     -1515.2931      322.90018      455.56691      3840.7412      0.99696119
     46000  -1288.3488      227.84178     -1516.1906      299.74979      661.20912      3840.7412      0.99696119
     47000  -1309.9916      222.79017     -1532.7818      293.10386     -1190.9718      3840.7412      0.99696119
     48000  -1298.0787      228.99394     -1527.0726      301.26558     -161.01244      3840.7412      0.99696119
     49000  -1329.9797      218.96783     -1548.9476      288.07517      102.37608      3840.7412      0.99696119
     50000  -1314.1354      219.3476      -1533.483       288.5748      -788.68131      3840.7412      0.99696119
     51000  -1305.1849      239.37414     -1544.559       314.92181      366.13641      3840.7412      0.99696119
     52000  -1321.6729      233.80412     -1555.477       307.59387     -720.42635      3840.7412      0.99696119
     53000  -1289.0525      225.0981      -1514.1506      296.14019     -412.65058      3840.7412      0.99696119
     54000  -1321.8622      219.14126     -1541.0035      288.30334      777.85494      3840.7412      0.99696119
     55000  -1307.5863      239.33938     -1546.9257      314.87609     -1129.129       3840.7412      0.99696119
     56000  -1290.2732      236.23277     -1526.506       310.78901     -1482.8503      3840.7412      0.99696119
     57000  -1323.8363      210.69298     -1534.5293      277.18875     -1042.5003      3840.7412      0.99696119
     58000  -1314.656       216.16229     -1530.8183      284.38419     -1050.818       3840.7412      0.99696119
     59000  -1312.8879      242.9179      -1555.8058      319.58401      410.24023      3840.7412      0.99696119
     60000  -1267.7642      220.65294     -1488.4172      290.29211      249.67292      3840.7412      0.99696119
     61000  -1306.0299      212.53438     -1518.5643      279.6113       511.56441      3840.7412      0.99696119
     62000  -1308.388       209.69723     -1518.0853      275.87873     -547.77422      3840.7412      0.99696119
     63000  -1307.616       222.15567     -1529.7717      292.26911     -2647.1918      3840.7412      0.99696119
     64000  -1244.1313      239.33395     -1483.4652      314.86894     -2597.9853      3840.7412      0.99696119
     65000  -1289.9399      219.31653     -1509.2564      288.53393      1819.1424      3840.7412      0.99696119
     66000  -1285.1127      209.37683     -1494.4895      275.45721     -45.873249      3840.7412      0.99696119
     67000  -1311.845       216.90055     -1528.7455      285.35545      1125.9439      3840.7412      0.99696119
     68000  -1321.5184      207.92504     -1529.4435      273.54722     -798.37087      3840.7412      0.99696119
     69000  -1338.8489      221.52409     -1560.373       291.43821      697.82223      3840.7412      0.99696119
     70000  -1335.2788      215.76518     -1551.044       283.86176     -15.318148      3840.7412      0.99696119
     71000  -1321.0747      205.42081     -1526.4955      270.25265     -560.71171      3840.7412      0.99696119
     72000  -1295.737       228.55988     -1524.2969      300.69452      806.46697      3840.7412      0.99696119
     73000  -1321.701       229.75359     -1551.4546      302.26497     -425.63019      3840.7412      0.99696119
     74000  -1300.9698      220.99117     -1521.9609      290.73709     -627.52971      3840.7412      0.99696119
     75000  -1320.7046      218.62658     -1539.3312      287.62622      219.86278      3840.7412      0.99696119
     76000  -1356.3176      218.73443     -1575.052       287.76812     -746.0232       3840.7412      0.99696119
     77000  -1281.7861      241.5067      -1523.2928      317.72743     -9.4333781      3840.7412      0.99696119
     78000  -1301.3886      224.64028     -1526.0289      295.53788     -1973.3687      3840.7412      0.99696119
     79000  -1287.6177      237.90447     -1525.5222      312.98832     -902.41778      3840.7412      0.99696119
     80000  -1344.7485      218.0535      -1562.802       286.87227     -2348.7683      3840.7412      0.99696119
     81000  -1283.9519      241.81801     -1525.7699      318.13699      1096.6223      3840.7412      0.99696119
     82000  -1293.943       229.22647     -1523.1694      301.57149      817.2792       3840.7412      0.99696119
     83000  -1332.6738      220.25481     -1552.9286      289.76834     -732.67228      3840.7412      0.99696119
     84000  -1358.2665      209.91547     -1568.1819      276.16584     -350.64003      3840.7412      0.99696119
     85000  -1298.4767      221.98966     -1520.4664      292.05071      2553.0069      3840.7412      0.99696119
     86000  -1298.455       231.48074     -1529.9357      304.53722      166.25234      3840.7412      0.99696119
     87000  -1312.9612      228.38538     -1541.3466      300.46495      940.06473      3840.7412      0.99696119
     88000  -1300.5196      236.60538     -1537.1249      311.27922      689.08692      3840.7412      0.99696119
     89000  -1313.3721      238.87463     -1552.2467      314.26466     -1846.6678      3840.7412      0.99696119
     90000  -1347.8673      207.69849     -1555.5658      273.24918     -1163.5164      3840.7412      0.99696119
     91000  -1313.2031      219.28309     -1532.4862      288.48993     -16.920531      3840.7412      0.99696119
     92000  -1310.5459      226.50476     -1537.0507      297.9908      -570.33232      3840.7412      0.99696119
     93000  -1298.0194      248.07765     -1546.0971      326.3722      -374.02582      3840.7412      0.99696119
     94000  -1332.9877      221.26029     -1554.248       291.09114      1308.795       3840.7412      0.99696119
     95000  -1298.8713      235.58901     -1534.4603      309.94209      278.91824      3840.7412      0.99696119
     96000  -1289.8322      225.48681     -1515.319       296.65158      431.51375      3840.7412      0.99696119
     97000  -1309.815       212.35285     -1522.1679      279.37248     -435.85026      3840.7412      0.99696119
     98000  -1279.7888      241.6975      -1521.4863      317.97844     -1487.8165      3840.7412      0.99696119
     99000  -1302.0537      217.64655     -1519.7002      286.33689     -2796.7917      3840.7412      0.99696119
    100000  -1270.387       227.82772     -1498.2147      299.73129     -67.847541      3840.7412      0.99696119
    101000  -1299.5967      231.42631     -1531.023       304.46561     -552.44197      3840.7412      0.99696119
    102000  -1268.9345      221.62609     -1490.5606      291.57239      819.17         3840.7412      0.99696119
    103000  -1297.7823      223.9309      -1521.7132      294.60461     -1014.453       3840.7412      0.99696119
    104000  -1325.6635      210.86585     -1536.5293      277.41617     -618.62281      3840.7412      0.99696119
    105000  -1301.6146      226.05295     -1527.6675      297.39639     -180.04453      3840.7412      0.99696119
    106000  -1280.3606      224.56577     -1504.9264      295.43986     -1866.6304      3840.7412      0.99696119
    107000  -1314.3378      224.84969     -1539.1875      295.81338      1518.5931      3840.7412      0.99696119
    108000  -1308.7018      225.77819     -1534.48        297.03492     -47.208129      3840.7412      0.99696119
    109000  -1305.2012      222.74401     -1527.9452      293.04314     -255.64424      3840.7412      0.99696119
    110000  -1335.7232      213.80321     -1549.5264      281.28058     -623.43146      3840.7412      0.99696119
    111000  -1309.7369      233.84893     -1543.5858      307.65282      1687.8504      3840.7412      0.99696119
    112000  -1332.6244      224.10346     -1556.7279      294.83164      1122.3596      3840.7412      0.99696119
    113000  -1297.8787      230.38292     -1528.2617      303.09292      377.79079      3840.7412      0.99696119
    114000  -1318.1911      227.54853     -1545.7396      299.36399     -2043.3689      3840.7412      0.99696119
    115000  -1318.275       209.50484     -1527.7798      275.62561     -158.00617      3840.7412      0.99696119
    116000  -1352.9914      196.05861     -1549.05        257.93569      894.54346      3840.7412      0.99696119
    117000  -1320.9219      222.99346     -1543.9153      293.37131     -615.256        3840.7412      0.99696119
    118000  -1308.5565      217.98043     -1526.537       286.77615     -1382.7765      3840.7412      0.99696119
    119000  -1277.6226      226.79005     -1504.4126      298.36612     -272.84068      3840.7412      0.99696119
    120000  -1291.5217      223.13115     -1514.6529      293.55246      631.24794      3840.7412      0.99696119
    121000  -1327.9994      206.65449     -1534.6539      271.87568     -1431.3693      3840.7412      0.99696119
    122000  -1269.582       240.76452     -1510.3465      316.75101      273.57574      3840.7412      0.99696119
    123000  -1304.8659      235.15312     -1540.019       309.36862      1608.6001      3840.7412      0.99696119
    124000  -1291.6976      231.26578     -1522.9634      304.25441     -2938.8964      3840.7412      0.99696119
    125000  -1271.8131      232.80782     -1504.621       306.28313     -557.49264      3840.7412      0.99696119
    126000  -1327.6533      236.08986     -1563.7431      310.601       -345.95098      3840.7412      0.99696119
    127000  -1288.1905      228.87602     -1517.0665      301.11044     -727.12003      3840.7412      0.99696119
    128000  -1300.4114      229.06185     -1529.4732      301.35491     -2236.9427      3840.7412      0.99696119
    129000  -1294.9001      225.8713      -1520.7714      297.15741     -370.6656       3840.7412      0.99696119
    130000  -1333.0617      218.54657     -1551.6082      287.52096     -51.488817      3840.7412      0.99696119
    131000  -1306.5152      227.69513     -1534.2103      299.55686      1546.1011      3840.7412      0.99696119
    132000  -1274.14        224.18991     -1498.33        294.94537      829.13536      3840.7412      0.99696119
    133000  -1302.0949      228.81589     -1530.9108      301.03133     -204.92133      3840.7412      0.99696119
    134000  -1333.3229      213.98314     -1547.306       281.51728     -1355.5701      3840.7412      0.99696119
    135000  -1296.667       212.57491     -1509.2419      279.66461     -1254.8323      3840.7412      0.99696119
    136000  -1298.5225      245.81065     -1544.3331      323.38972     -742.31807      3840.7412      0.99696119
    137000  -1248.0799      265.16502     -1513.2449      348.85243      1817.8603      3840.7412      0.99696119
    138000  -1278.1851      229.25676     -1507.4418      301.61135     -1565.2352      3840.7412      0.99696119
    139000  -1291.5467      229.47313     -1521.0198      301.896       -1674.8361      3840.7412      0.99696119
    140000  -1310.5855      213.16145     -1523.747       280.43627     -1085.2048      3840.7412      0.99696119
    141000  -1331.7644      227.07501     -1558.8394      298.74102     -1220.13        3840.7412      0.99696119
    142000  -1290.5872      230.32121     -1520.9084      303.01174     -480.13327      3840.7412      0.99696119
    143000  -1314.9591      241.7519      -1556.711       318.05001      157.73594      3840.7412      0.99696119
    144000  -1314.3417      226.42253     -1540.7642      297.88262     -2059.1779      3840.7412      0.99696119
    145000  -1305.0748      227.04094     -1532.1157      298.6962      -909.44544      3840.7412      0.99696119
    146000  -1259.1586      226.96532     -1486.1239      298.59671      228.65966      3840.7412      0.99696119
    147000  -1325.4124      210.95799     -1536.3704      277.53739     -548.35847      3840.7412      0.99696119
    148000  -1272.8515      225.89405     -1498.7456      297.18735      105.49663      3840.7412      0.99696119
    149000  -1268.1151      224.9647      -1493.0798      295.96468     -1763.1809      3840.7412      0.99696119
    150000  -1242.3246      246.37108     -1488.6957      324.12703     -1347.9412      3840.7412      0.99696119
    151000  -1324.4271      222.39492     -1546.822       292.58388     -427.70031      3840.7412      0.99696119
    152000  -1324.0494      228.8174      -1552.8668      301.03332     -2077.4539      3840.7412      0.99696119
    153000  -1304.0371      213.4523      -1517.4894      280.81892      578.4531       3840.7412      0.99696119
    154000  -1278.3178      237.51294     -1515.8307      312.47321     -428.88276      3840.7412      0.99696119
    155000  -1336.7713      206.51063     -1543.282       271.68642     -496.84177      3840.7412      0.99696119
    156000  -1288.1427      233.62676     -1521.7694      307.36054     -36.457048      3840.7412      0.99696119
    157000  -1316.4587      217.22981     -1533.6885      285.78863      815.68219      3840.7412      0.99696119
    158000  -1306.8136      210.49999     -1517.3136      276.93485      1098.3232      3840.7412      0.99696119
    159000  -1304.7814      239.60787     -1544.3893      315.22931     -96.834709      3840.7412      0.99696119
    160000  -1306.8412      224.16705     -1531.0082      294.9153       310.42259      3840.7412      0.99696119
    161000  -1269.8195      237.12326     -1506.9428      311.96055      2722.4802      3840.7412      0.99696119
    162000  -1320.2751      222.64837     -1542.9235      292.91731     -2450.4101      3840.7412      0.99696119
    163000  -1318.4568      209.2849      -1527.7417      275.33626      1472.305       3840.7412      0.99696119
    164000  -1296.4232      236.67243     -1533.0956      311.36743     -1742.1927      3840.7412      0.99696119
    165000  -1277.1542      223.59183     -1500.746       294.15853     -1054.2233      3840.7412      0.99696119
    166000  -1293.3047      226.26555     -1519.5703      297.67609      1220.3315      3840.7412      0.99696119
    167000  -1278.1838      232.5153      -1510.6991      305.89829     -1773.4797      3840.7412      0.99696119
    168000  -1302.8786      232.3702      -1535.2488      305.70739      348.73339      3840.7412      0.99696119
    169000  -1267.4608      226.68699     -1494.1478      298.23054     -473.9995       3840.7412      0.99696119
    170000  -1311.1809      229.20329     -1540.3842      301.541        2481.3945      3840.7412      0.99696119
    171000  -1306.8772      220.20471     -1527.0819      289.70242     -1237.8634      3840.7412      0.99696119
    172000  -1273.2094      235.31522     -1508.5246      309.58189     -1021.1484      3840.7412      0.99696119
    173000  -1307.9355      236.37774     -1544.3132      310.97973      1824.4947      3840.7412      0.99696119
    174000  -1308.8892      227.32369     -1536.2129      299.06818     -1762.1774      3840.7412      0.99696119
    175000  -1314.8874      215.82183     -1530.7093      283.93628     -1648.566       3840.7412      0.99696119
    176000  -1288.6047      235.86156     -1524.4662      310.30065      322.3323       3840.7412      0.99696119
    177000  -1318.5276      224.18135     -1542.709       294.93411     -66.972116      3840.7412      0.99696119
    178000  -1308.8884      228.1324      -1537.0208      300.13212     -2447.2191      3840.7412      0.99696119
    179000  -1308.7478      227.57959     -1536.3274      299.40484     -852.29583      3840.7412      0.99696119
    180000  -1290.9981      217.85932     -1508.8574      286.61681     -757.41288      3840.7412      0.99696119
    181000  -1301.5127      220.43486     -1521.9476      290.0052      -214.21401      3840.7412      0.99696119
    182000  -1331.0258      215.28827     -1546.314       283.23433      721.57043      3840.7412      0.99696119
    183000  -1288.063       238.36552     -1526.4285      313.59487      49.002922      3840.7412      0.99696119
    184000  -1325.3243      207.44931     -1532.7736      272.92135     -1387.8271      3840.7412      0.99696119
    185000  -1297.744       225.68237     -1523.4263      296.90885     -1641.8241      3840.7412      0.99696119
    186000  -1320.3399      222.76949     -1543.1094      293.07665     -2203.4893      3840.7412      0.99696119
    187000  -1323.8403      226.2001      -1550.0404      297.58999     -1320.2192      3840.7412      0.99696119
    188000  -1276.436       246.73814     -1523.1741      324.60994     -791.99281      3840.7412      0.99696119
    189000  -1282.7692      219.48234     -1502.2515      288.75207     -1339.6069      3840.7412      0.99696119
    190000  -1331.0953      231.591       -1562.6863      304.68228     -480.43169      3840.7412      0.99696119
    191000  -1294.8205      234.77397     -1529.5944      308.86981      299.36115      3840.7412      0.99696119
    192000  -1291.1676      234.44263     -1525.6102      308.4339      -1242.2093      3840.7412      0.99696119
    193000  -1280.1761      222.20291     -1502.379       292.33126     -565.65212      3840.7412      0.99696119
    194000  -1327.2282      219.22847     -1546.4567      288.41807     -303.16129      3840.7412      0.99696119
    195000  -1315.6902      248.04065     -1563.7309      326.32352     -988.04153      3840.7412      0.99696119
    196000  -1317.6714      219.91966     -1537.5911      289.3274      -492.96692      3840.7412      0.99696119
    197000  -1313.7376      226.36822     -1540.1058      297.81116      1408.1159      3840.7412      0.99696119
    198000  -1286.7351      234.0053      -1520.7404      307.85854      2019.8803      3840.7412      0.99696119
    199000  -1283.3886      234.36827     -1517.7569      308.33607     -299.12234      3840.7412      0.99696119
    200000  -1321.711       206.32784     -1528.0388      271.44594     -348.20455      3840.7412      0.99696119
    201000  -1319.5493      241.42665     -1560.9759      317.62211      828.7498       3840.7412      0.99696119
    202000  -1244.6259      254.58895     -1499.2148      334.93849     -33.942795      3840.7412      0.99696119
    203000  -1283.0868      220.58408     -1503.6709      290.20152     -374.40881      3840.7412      0.99696119
    204000  -1302.765       209.4096      -1512.1746      275.50032      844.23889      3840.7412      0.99696119
    205000  -1312.797       216.8838      -1529.6808      285.33341     -1073.9481      3840.7412      0.99696119
    206000  -1300.1357      236.48561     -1536.6213      311.12166     -1606.8678      3840.7412      0.99696119
    207000  -1334.8008      217.09856     -1551.8994      285.61595     -960.22958      3840.7412      0.99696119
    208000  -1265.0019      230.56819     -1495.5701      303.33667      275.94884      3840.7412      0.99696119
    209000  -1286.7361      234.53644     -1521.2725      308.55731      846.59655      3840.7412      0.99696119
    210000  -1309.3566      231.43939     -1540.796       304.48282     -1904.472       3840.7412      0.99696119
    211000  -1296.3889      228.81921     -1525.2081      301.03569      1448.8552      3840.7412      0.99696119
    212000  -1324.2698      242.35329     -1566.6231      318.8412       338.91992      3840.7412      0.99696119
    213000  -1364.4681      212.33677     -1576.8049      279.35132     -1681.2798      3840.7412      0.99696119
    214000  -1320.3715      225.09111     -1545.4626      296.13099     -858.49456      3840.7412      0.99696119
    215000  -1325.7488      209.94984     -1535.6986      276.21106      291.67347      3840.7412      0.99696119
    216000  -1309.3825      216.39071     -1525.7732      284.6847       771.25852      3840.7412      0.99696119
    217000  -1267.7071      235.24263     -1502.9498      309.48638      1293.1796      3840.7412      0.99696119
    218000  -1293.9739      224.09111     -1518.065       294.81539     -251.88738      3840.7412      0.99696119
    219000  -1274.2152      230.13106     -1504.3463      302.76157     -27.781655      3840.7412      0.99696119
    220000  -1310.7721      241.36215     -1552.1343      317.53726      982.9192       3840.7412      0.99696119
    221000  -1334.4463      226.54148     -1560.9878      298.03911     -2401.5805      3840.7412      0.99696119
    222000  -1299.4478      220.17949     -1519.6273      289.66924     -903.35781      3840.7412      0.99696119
    223000  -1326.4651      230.85565     -1557.3208      303.71485      835.88867      3840.7412      0.99696119
    224000  -1301.8359      240.3062      -1542.1421      316.14805     -744.65851      3840.7412      0.99696119
    225000  -1307.8141      230.65119     -1538.4653      303.44586      533.04081      3840.7412      0.99696119
    226000  -1303.5648      222.04951     -1525.6143      292.12945     -1116.9292      3840.7412      0.99696119
    227000  -1268.1329      231.92128     -1500.0542      305.11679     -484.27753      3840.7412      0.99696119
    228000  -1306.9751      232.95229     -1539.9274      306.4732      -2219.4363      3840.7412      0.99696119
    229000  -1269.0667      221.97491     -1491.0417      292.03131      1360.6023      3840.7412      0.99696119
    230000  -1303.2024      228.05559     -1531.258       300.03108     -1188.8124      3840.7412      0.99696119
    231000  -1282.3698      248.47462     -1530.8444      326.89446     -430.23188      3840.7412      0.99696119
    232000  -1300.4627      235.04669     -1535.5094      309.2286      -1445.5833      3840.7412      0.99696119
    233000  -1337.6185      208.77434     -1546.3928      274.66456      1020.9168      3840.7412      0.99696119
    234000  -1346.2102      211.43101     -1557.6412      278.1597      -1868.3249      3840.7412      0.99696119
    235000  -1308.6986      241.32922     -1550.0278      317.49393     -1665.3436      3840.7412      0.99696119
    236000  -1329.0368      208.42203     -1537.4588      274.20107      1056.4579      3840.7412      0.99696119
    237000  -1283.2408      247.33333     -1530.5742      325.39297     -1796.8902      3840.7412      0.99696119
    238000  -1309.1742      234.19987     -1543.374       308.11452     -1856.8335      3840.7412      0.99696119
    239000  -1273.2492      244.03278     -1517.282       321.05075      511.55276      3840.7412      0.99696119
    240000  -1323.7664      234.92887     -1558.6952      309.0736      -754.59481      3840.7412      0.99696119
    241000  -1318.8523      223.1578      -1542.0101      293.58752     -1043.8657      3840.7412      0.99696119
    242000  -1306.7752      221.75293     -1528.5281      291.73927      1402.9871      3840.7412      0.99696119
    243000  -1321.3985      209.86099     -1531.2595      276.09418     -1537.1751      3840.7412      0.99696119
    244000  -1307.8097      226.16984     -1533.9795      297.55018      168.19654      3840.7412      0.99696119
    245000  -1327.7216      216.76173     -1544.4833      285.17282      2222.7348      3840.7412      0.99696119
    246000  -1306.3686      213.30315     -1519.6718      280.62269      1145.6954      3840.7412      0.99696119
    247000  -1294.2912      211.24793     -1505.5392      277.91884     -764.21641      3840.7412      0.99696119
    248000  -1318.608       229.27743     -1547.8855      301.63853      370.25475      3840.7412      0.99696119
    249000  -1318.7185      201.83427     -1520.5528      265.53418      208.08779      3840.7412      0.99696119
    250000  -1314.1938      217.32508     -1531.5188      285.91397     -723.89216      3840.7412      0.99696119
    251000  -1321.1531      226.40009     -1547.5531      297.8531      -40.583006      3840.7412      0.99696119
    252000  -1296.9769      238.88501     -1535.8619      314.27831      630.43165      3840.7412      0.99696119
    253000  -1323.0118      228.6534      -1551.6652      300.81756     -894.56918      3840.7412      0.99696119
    254000  -1309.8422      229.20544     -1539.0476      301.54383     -566.87023      3840.7412      0.99696119
    255000  -1311.8164      224.13166     -1535.9481      294.86873     -1246.2161      3840.7412      0.99696119
    256000  -1316.4977      217.23939     -1533.7371      285.80123     -1447.795       3840.7412      0.99696119
    257000  -1310.8432      218.6573      -1529.5005      287.66664     -1413.0964      3840.7412      0.99696119
    258000  -1328.8915      217.93275     -1546.8242      286.71341     -109.26687      3840.7412      0.99696119
    259000  -1285.1912      232.55377     -1517.745       305.9489       2076.9655      3840.7412      0.99696119
    260000  -1301.7554      213.41417     -1515.1696      280.76875      796.68568      3840.7412      0.99696119
    261000  -1265.4857      239.61302     -1505.0987      315.23609     -2282.6874      3840.7412      0.99696119
    262000  -1312.3131      227.30988     -1539.623       299.05001     -212.50144      3840.7412      0.99696119
    263000  -1318.6716      216.48266     -1535.1543      284.80568     -102.64896      3840.7412      0.99696119
    264000  -1337.64        214.39117     -1552.0311      282.05409     -568.37207      3840.7412      0.99696119
    265000  -1334.1326      229.59348     -1563.7261      302.05433      429.70682      3840.7412      0.99696119
    266000  -1278.7913      235.85009     -1514.6413      310.28556      1464.0852      3840.7412      0.99696119
    267000  -1293.7609      237.21562     -1530.9765      312.08206     -56.430293      3840.7412      0.99696119
    268000  -1321.5675      214.72378     -1536.2913      282.49168     -1379.3578      3840.7412      0.99696119
    269000  -1317.705       225.72927     -1543.4343      296.97056     -1730.5667      3840.7412      0.99696119
    270000  -1309.1179      218.77289     -1527.8908      287.81871      350.90442      3840.7412      0.99696119
    271000  -1300.9883      231.17426     -1532.1625      304.13402     -552.1644       3840.7412      0.99696119
    272000  -1354.3311      213.52603     -1567.8572      280.91592     -8.2605302      3840.7412      0.99696119
    273000  -1303.4871      224.3882      -1527.8753      295.20623     -2733.1574      3840.7412      0.99696119
    274000  -1334.72        201.27937     -1535.9994      264.80415     -950.78069      3840.7412      0.99696119
    275000  -1293.4361      226.70811     -1520.1442      298.25833      298.39965      3840.7412      0.99696119
    276000  -1290.9892      223.62222     -1514.6114      294.19851      762.45883      3840.7412      0.99696119
    277000  -1332.0467      225.99814     -1558.0448      297.32429     -258.93392      3840.7412      0.99696119
    278000  -1288.1522      237.76916     -1525.9214      312.8103      -1274.4884      3840.7412      0.99696119
    279000  -1316.4441      229.07527     -1545.5193      301.37258     -59.353246      3840.7412      0.99696119
    280000  -1335.487       207.61895     -1543.1059      273.14453     -760.65619      3840.7412      0.99696119
    281000  -1328.5313      225.96729     -1554.4986      297.2837       801.8322       3840.7412      0.99696119
    282000  -1305.5777      210.10153     -1515.6792      276.41062     -1179.6702      3840.7412      0.99696119
    283000  -1295.3512      223.63613     -1518.9873      294.21682     -678.72177      3840.7412      0.99696119
    284000  -1309.1023      212.45001     -1521.5523      279.5003      -40.301856      3840.7412      0.99696119
    285000  -1243.1613      232.50474     -1475.666       305.8844      -685.10058      3840.7412      0.99696119
    286000  -1306.5446      224.88766     -1531.4323      295.86333     -1742.5943      3840.7412      0.99696119
    287000  -1297.8653      212.59498     -1510.4603      279.69102     -2495.3606      3840.7412      0.99696119
    288000  -1290.113       241.3514      -1531.4644      317.52311      458.2109       3840.7412      0.99696119
    289000  -1320.1526      228.87989     -1549.0325      301.11552     -362.39017      3840.7412      0.99696119
    290000  -1318.1582      224.43731     -1542.5955      295.27085     -789.31684      3840.7412      0.99696119
    291000  -1291.3172      220.72118     -1512.0384      290.3819       1036.3833      3840.7412      0.99696119
    292000  -1313.4192      216.89454     -1530.3138      285.34754     -314.12381      3840.7412      0.99696119
    293000  -1341.7709      213.96111     -1555.732       281.48831     -677.45124      3840.7412      0.99696119
    294000  -1313.6374      222.10196     -1535.7393      292.19845      800.10052      3840.7412      0.99696119
    295000  -1325.8042      215.47288     -1541.2771      283.47721      177.51105      3840.7412      0.99696119
    296000  -1281.4136      230.20269     -1511.6163      302.85582      430.23837      3840.7412      0.99696119
    297000  -1328.1546      219.75348     -1547.9081      289.10877     -1287.6771      3840.7412      0.99696119
    298000  -1332.134       208.85661     -1540.9907      274.77281     -1289.5129      3840.7412      0.99696119
    299000  -1329.6066      241.21157     -1570.8181      317.33916      257.54588      3840.7412      0.99696119
    300000  -1302.1219      224.26042     -1526.3823      295.03813     -11.353515      3840.7412      0.99696119
    301000  -1352.8735      210.59384     -1563.4674      277.05831      4.0507357      3840.7412      0.99696119
    302000  -1341.6405      220.1807      -1561.8212      289.67083     -706.2091       3840.7412      0.99696119
    303000  -1310.9822      235.30775     -1546.2899      309.57205     -1756.0098      3840.7412      0.99696119
    304000  -1334.3549      209.86556     -1544.2205      276.10018     -1715.5587      3840.7412      0.99696119
    305000  -1313.4957      227.08643     -1540.5821      298.75605     -512.17115      3840.7412      0.99696119
    306000  -1329.4583      213.11902     -1542.5773      280.38045      372.32824      3840.7412      0.99696119
    307000  -1289.8385      233.82726     -1523.6657      307.62432      2593.0869      3840.7412      0.99696119
    308000  -1293.5434      243.41236     -1536.9557      320.23452      433.39725      3840.7412      0.99696119
    309000  -1303.1677      223.05834     -1526.226       293.45667      590.6111       3840.7412      0.99696119
    310000  -1292.7645      228.80508     -1521.5696      301.01712     -206.20466      3840.7412      0.99696119
    311000  -1261.087       235.61292     -1496.7         309.97353      767.39413      3840.7412      0.99696119
    312000  -1298.1411      235.0371      -1533.1782      309.21599     -713.56091      3840.7412      0.99696119
    313000  -1289.6664      227.81962     -1517.486       299.72063     -1516.6106      3840.7412      0.99696119
    314000  -1276.7165      244.7957      -1521.5122      322.05445      643.77268      3840.7412      0.99696119
    315000  -1307.5403      217.71524     -1525.2555      286.42725     -224.03823      3840.7412      0.99696119
    316000  -1323.6601      227.4344      -1551.0945      299.21383      1250.1135      3840.7412      0.99696119
    317000  -1289.5764      232.92494     -1522.5013      306.43721      1234.3104      3840.7412      0.99696119
    318000  -1265.1715      258.00594     -1523.1775      339.43391      1558.9859      3840.7412      0.99696119
    319000  -1303.0912      225.55022     -1528.6414      296.735       -213.49507      3840.7412      0.99696119
    320000  -1259.4505      249.26329     -1508.7138      327.93203     -658.99312      3840.7412      0.99696119
    321000  -1291.7234      220.58331     -1512.3067      290.20051     -1263.4925      3840.7412      0.99696119
    322000  -1261.9001      228.71874     -1490.6189      300.90352     -946.41079      3840.7412      0.99696119
    323000  -1257.8918      231.66485     -1489.5567      304.77944     -1353.1216      3840.7412      0.99696119
    324000  -1302.7653      232.1442      -1534.9095      305.41007      809.74472      3840.7412      0.99696119
    325000  -1295.0907      233.34105     -1528.4317      306.98465     -3026.0092      3840.7412      0.99696119
    326000  -1275.3653      244.22431     -1519.5897      321.30272     -2484.2727      3840.7412      0.99696119
    327000  -1302.4071      213.59578     -1516.0029      281.00768      537.85872      3840.7412      0.99696119
    328000  -1273.5871      224.9689      -1498.556       295.97022     -1635.1579      3840.7412      0.99696119
    329000  -1330.1681      217.26179     -1547.4299      285.83069     -7.9765399      3840.7412      0.99696119
    330000  -1297.9366      221.51889     -1519.4555      291.43136      1085.1926      3840.7412      0.99696119
    331000  -1326.1434      222.71428     -1548.8577      293.00402     -386.72196      3840.7412      0.99696119
    332000  -1322.8729      231.68679     -1554.5597      304.8083      -520.44261      3840.7412      0.99696119
    333000  -1280.1867      234.47022     -1514.6569      308.47019      64.755926      3840.7412      0.99696119
    334000  -1324.639       233.32013     -1557.9591      306.95714     -748.72875      3840.7412      0.99696119
    335000  -1320.8111      222.25353     -1543.0646      292.39785     -1546.3062      3840.7412      0.99696119
    336000  -1290.789       232.39295     -1523.1819      305.73733     -2432.8298      3840.7412      0.99696119
    337000  -1312.1394      217.65147     -1529.7909      286.34336     -2860.3425      3840.7412      0.99696119
    338000  -1309.2945      227.53212     -1536.8266      299.3424       320.41022      3840.7412      0.99696119
    339000  -1305.6173      215.62777     -1521.2451      283.68098      2135.6879      3840.7412      0.99696119
    340000  -1293.9967      222.24335     -1516.24        292.38447      33.396057      3840.7412      0.99696119
    341000  -1268.884       239.8292      -1508.7132      315.5205       631.0527       3840.7412      0.99696119
    342000  -1297.96        226.28224     -1524.2422      297.69805     -76.869346      3840.7412      0.99696119
    343000  -1260.4337      239.67077     -1500.1044      315.31207     -599.56536      3840.7412      0.99696119
    344000  -1308.4463      240.14461     -1548.5909      315.93545      613.53384      3840.7412      0.99696119
    345000  -1273.7153      240.92556     -1514.6408      316.96287     -175.37989      3840.7412      0.99696119
    346000  -1317.6558      227.24744     -1544.9032      298.96787     -729.29087      3840.7412      0.99696119
    347000  -1294.7563      214.34881     -1509.1051      281.99837      710.92368      3840.7412      0.99696119
    348000  -1299.7964      233.46705     -1533.2634      307.15042     -389.78292      3840.7412      0.99696119
    349000  -1335.3843      224.86238     -1560.2466      295.83007      930.80106      3840.7412      0.99696119
    350000  -1331.3408      225.36261     -1556.7034      296.48818      1404.0978      3840.7412      0.99696119
    351000  -1312.6026      232.43086     -1545.0335      305.78721     -2417.2407      3840.7412      0.99696119
    352000  -1316.2886      215.47447     -1531.7631      283.47929     -841.49397      3840.7412      0.99696119
    353000  -1313.7159      227.85709     -1541.5729      299.76993     -301.65436      3840.7412      0.99696119
    354000  -1281.9398      256.30522     -1538.2451      337.19643      725.02614      3840.7412      0.99696119
    355000  -1300.5108      234.17869     -1534.6895      308.08666     -2456.2246      3840.7412      0.99696119
    356000  -1303.6646      221.6981      -1525.3627      291.66713     -4332.2078      3840.7412      0.99696119
    357000  -1281.9808      229.65129     -1511.6321      302.13038     -266.16278      3840.7412      0.99696119
    358000  -1335.308       211.85843     -1547.1664      278.72202      322.83122      3840.7412      0.99696119
    359000  -1321.3072      216.88682     -1538.194       285.33739      192.72371      3840.7412      0.99696119
    360000  -1299.2139      236.54273     -1535.7567      311.1968      -964.23131      3840.7412      0.99696119
    361000  -1286.1144      236.62164     -1522.736       311.30061      2712.7822      3840.7412      0.99696119
    362000  -1309.0285      223.01523     -1532.0438      293.39996      457.53688      3840.7412      0.99696119
    363000  -1281.301       231.81282     -1513.1138      304.97411     -194.92267      3840.7412      0.99696119
    364000  -1299.8731      236.9636      -1536.8367      311.7505      -1072.2028      3840.7412      0.99696119
    365000  -1281.1125      235.38088     -1516.4934      309.66826     -590.49763      3840.7412      0.99696119
    366000  -1327.6811      213.83143     -1541.5125      281.3177       1049.4498      3840.7412      0.99696119
    367000  -1314.0222      229.22252     -1543.2447      301.5663      -144.29755      3840.7412      0.99696119
    368000  -1284.3724      235.18277     -1519.5552      309.40763     -2189.1406      3840.7412      0.99696119
    369000  -1294.3576      222.70102     -1517.0586      292.98658      1298.9629      3840.7412      0.99696119
    370000  -1295.4014      235.16217     -1530.5636      309.38052     -889.26651      3840.7412      0.99696119
    371000  -1315.1941      226.90698     -1542.1011      298.51996      1358.0466      3840.7412      0.99696119
    372000  -1255.5973      227.12221     -1482.7195      298.80312     -531.55471      3840.7412      0.99696119
    373000  -1313.0093      223.02977     -1536.0391      293.41908      251.268        3840.7412      0.99696119
    374000  -1315.2106      222.32562     -1537.5362      292.4927      -1414.5174      3840.7412      0.99696119
    375000  -1295.0254      210.15616     -1505.1816      276.48249     -2725.6873      3840.7412      0.99696119
    376000  -1307.9342      241.54168     -1549.4759      317.77345     -545.98623      3840.7412      0.99696119
    377000  -1282.3936      231.24034     -1513.634       304.22095      2416.4014      3840.7412      0.99696119
    378000  -1291.5126      229.87089     -1521.3834      302.41929     -493.22445      3840.7412      0.99696119
    379000  -1330.1057      212.65352     -1542.7592      279.76803      703.61402      3840.7412      0.99696119
    380000  -1293.3783      224.17058     -1517.5489      294.91994     -403.29463      3840.7412      0.99696119
    381000  -1337.2726      225.22826     -1562.5008      296.31143      388.31068      3840.7412      0.99696119
    382000  -1304.1527      231.23416     -1535.3869      304.21281      1424.6611      3840.7412      0.99696119
    383000  -1288.3086      245.37292     -1533.6816      322.81384     -871.11741      3840.7412      0.99696119
    384000  -1317.3241      214.19799     -1531.5221      281.79995     -1459.1108      3840.7412      0.99696119
    385000  -1307.0628      228.07589     -1535.1387      300.05778     -200.01001      3840.7412      0.99696119
    386000  -1276.742       223.99895     -1500.741       294.69413      1041.524       3840.7412      0.99696119
    387000  -1298.2652      241.20866     -1539.4738      317.33532      117.99025      3840.7412      0.99696119
    388000  -1297.571       236.34747     -1533.9184      310.93991     -1351.1892      3840.7412      0.99696119
    389000  -1340.8561      213.34987     -1554.2059      280.68416      541.18242      3840.7412      0.99696119
    390000  -1317.5276      224.98221     -1542.5098      295.98772     -723.08073      3840.7412      0.99696119
    391000  -1280.9734      228.82852     -1509.8019      301.04795     -1387.3544      3840.7412      0.99696119
    392000  -1320.7217      239.24831     -1559.97        314.75628     -525.11494      3840.7412      0.99696119
    393000  -1337.1787      222.03525     -1559.2139      292.11069      1061.3581      3840.7412      0.99696119
    394000  -1329.4372      218.74432     -1548.1815      287.78112     -760.84304      3840.7412      0.99696119
    395000  -1290.9247      228.75788     -1519.6826      300.95501     -313.63844      3840.7412      0.99696119
    396000  -1299.5398      217.79692     -1517.3368      286.53472     -826.55392      3840.7412      0.99696119
    397000  -1286.516       234.29799     -1520.814       308.24361      1028.5371      3840.7412      0.99696119
    398000  -1281.1365      238.04386     -1519.1804      313.1717       1621.5449      3840.7412      0.99696119
    399000  -1327.0819      223.34361     -1550.4255      293.83198      976.04158      3840.7412      0.99696119
    400000  -1324.1317      214.98397     -1539.1157      282.83398     -2385.4237      3840.7412      0.99696119
    401000  -1293.7873      233.45127     -1527.2386      307.12966      197.59715      3840.7412      0.99696119
    402000  -1288.9665      225.90698     -1514.8735      297.20435     -1208.263       3840.7412      0.99696119
    403000  -1343.6341      213.09071     -1556.7248      280.3432       1597.474       3840.7412      0.99696119
    404000  -1294.5687      240.79058     -1535.3592      316.7853       563.22022      3840.7412      0.99696119
    405000  -1322.3541      234.98659     -1557.3407      309.14953      518.15728      3840.7412      0.99696119
    406000  -1320.738       234.53979     -1555.2778      308.56172      1185.9564      3840.7412      0.99696119
    407000  -1303.6626      223.60103     -1527.2636      294.17063      1255.7639      3840.7412      0.99696119
    408000  -1298.971       221.14811     -1520.1192      290.94356     -486.03212      3840.7412      0.99696119
    409000  -1266.3908      225.25611     -1491.6469      296.34807     -850.95234      3840.7412      0.99696119
    410000  -1292.5835      231.32672     -1523.9102      304.33459      887.76948      3840.7412      0.99696119
    411000  -1272.905       241.13589     -1514.0409      317.23958     -1392.0727      3840.7412      0.99696119
    412000  -1296.5273      230.71561     -1527.2429      303.53061      98.633449      3840.7412      0.99696119
    413000  -1319.3912      225.0754      -1544.4666      296.11032      224.76112      3840.7412      0.99696119
    414000  -1286.3938      239.11265     -1525.5064      314.5778      -1326.6853      3840.7412      0.99696119
    415000  -1297.5416      213.14531     -1510.6869      280.41504      2502.9097      3840.7412      0.99696119
    416000  -1274.7705      235.04482     -1509.8153      309.22614      122.49445      3840.7412      0.99696119
    417000  -1294.0274      217.61101     -1511.6384      286.29013      1243.6402      3840.7412      0.99696119
    418000  -1310.3815      217.38443     -1527.7659      285.99204      228.32935      3840.7412      0.99696119
    419000  -1299.3498      225.60471     -1524.9545      296.80668     -642.77241      3840.7412      0.99696119
    420000  -1321.4725      229.71851     -1551.191       302.21883     -1198.6161      3840.7412      0.99696119
    421000  -1345.81        216.00363     -1561.8136      284.17545      517.05958      3840.7412      0.99696119
    422000  -1311.6239      218.93965     -1530.5636      288.03811      818.07569      3840.7412      0.99696119
    423000  -1326.8554      227.22197     -1554.0774      298.93436      89.694419      3840.7412      0.99696119
    424000  -1289.293       240.24763     -1529.5407      316.07099     -879.05327      3840.7412      0.99696119
    425000  -1313.9981      238.6111      -1552.6092      313.91796     -770.90851      3840.7412      0.99696119
    426000  -1330.4346      219.85045     -1550.285       289.23635     -1275.3153      3840.7412      0.99696119
    427000  -1298.3119      230.7955      -1529.1074      303.63571      1593.4419      3840.7412      0.99696119
    428000  -1301.1136      215.48555     -1516.5991      283.49387     -11.817879      3840.7412      0.99696119
    429000  -1304.651       224.25821     -1528.9092      295.03522     -146.48488      3840.7412      0.99696119
    430000  -1291.5357      219.72027     -1511.256       289.06509     -504.591        3840.7412      0.99696119
    431000  -1271.8117      256.38872     -1528.2005      337.30629     -13.981788      3840.7412      0.99696119
    432000  -1299.0911      220.0324      -1519.1235      289.47573     -1325.4096      3840.7412      0.99696119
    433000  -1299.0068      221.95363     -1520.9604      292.00331     -776.25607      3840.7412      0.99696119
    434000  -1286.5769      224.02031     -1510.5972      294.72224     -435.93885      3840.7412      0.99696119
    435000  -1306.039       222.4607      -1528.4997      292.67041     -2314.815       3840.7412      0.99696119
    436000  -1295.0335      239.10206     -1534.1356      314.56386      2827.9001      3840.7412      0.99696119
    437000  -1295.6771      232.05246     -1527.7296      305.28937     -1606.8235      3840.7412      0.99696119
    438000  -1278.5116      222.90788     -1501.4195      293.25872     -1114.9497      3840.7412      0.99696119
    439000  -1272.6345      241.96016     -1514.5947      318.32399      203.78445      3840.7412      0.99696119
    440000  -1303.4806      230.67674     -1534.1573      303.47947      836.83049      3840.7412      0.99696119
    441000  -1293.928       231.57102     -1525.499       304.656        458.38071      3840.7412      0.99696119
    442000  -1299.1875      230.94215     -1530.1297      303.82864     -250.77099      3840.7412      0.99696119
    443000  -1267.9282      240.22752     -1508.1557      316.04453     -1330.0196      3840.7412      0.99696119
    444000  -1267.2914      246.03315     -1513.3246      323.68244      1554.4512      3840.7412      0.99696119
    445000  -1279.7174      234.381       -1514.0984      308.35282      215.57609      3840.7412      0.99696119
    446000  -1286.347       238.46474     -1524.8117      313.72541     -275.07377      3840.7412      0.99696119
    447000  -1318.5924      216.99545     -1535.5879      285.4803      -883.07385      3840.7412      0.99696119
    448000  -1315.8245      232.6373      -1548.4618      306.0588       185.67824      3840.7412      0.99696119
    449000  -1325.0719      218.20125     -1543.2731      287.06665     -1089.2457      3840.7412      0.99696119
    450000  -1300.2419      237.5698      -1537.8117      312.54801     -198.03937      3840.7412      0.99696119
    451000  -1321.3339      213.28936     -1534.6232      280.60455     -25.420352      3840.7412      0.99696119
    452000  -1316.6512      210.75847     -1527.4096      277.27489     -354.22171      3840.7412      0.99696119
    453000  -1303.9154      241.64532     -1545.5607      317.9098       452.90409      3840.7412      0.99696119
    454000  -1310.0093      230.42504     -1540.4343      303.14834     -4.8946504      3840.7412      0.99696119
    455000  -1301.7462      229.76837     -1531.5145      302.28442      330.08384      3840.7412      0.99696119
    456000  -1287.8809      243.38042     -1531.2613      320.19249     -166.89891      3840.7412      0.99696119
    457000  -1279.1791      240.33082     -1519.5099      316.18043      744.48844      3840.7412      0.99696119
    458000  -1309.0653      223.79453     -1532.8598      294.42521     -1102.1463      3840.7412      0.99696119
    459000  -1315.5813      245.87599     -1561.4572      323.47568     -1501.4507      3840.7412      0.99696119
    460000  -1316.9666      229.57807     -1546.5447      302.03406     -1757.9676      3840.7412      0.99696119
    461000  -1315.1137      226.03752     -1541.1512      297.3761       409.91759      3840.7412      0.99696119
    462000  -1317.9965      241.39151     -1559.388       317.57588      2066.0207      3840.7412      0.99696119
    463000  -1326.4695      225.84636     -1552.3159      297.1246       158.0704       3840.7412      0.99696119
    464000  -1317.9512      233.6744      -1551.6256      307.42322      255.4525       3840.7412      0.99696119
    465000  -1343.4773      233.01263     -1576.4899      306.55259      632.82289      3840.7412      0.99696119
    466000  -1290.2892      248.19787     -1538.4871      326.53037     -150.48867      3840.7412      0.99696119
    467000  -1300.8829      235.06312     -1535.946       309.25021      195.4894       3840.7412      0.99696119
    468000  -1274.3769      235.51188     -1509.8887      309.84061     -1328.1886      3840.7412      0.99696119
    469000  -1325.5552      210.66879     -1536.224       277.15692     -1647.6534      3840.7412      0.99696119
    470000  -1290.6684      233.70149     -1524.3699      307.45886      2440.9937      3840.7412      0.99696119
    471000  -1321.6507      219.78323     -1541.4339      289.14791     -970.90352      3840.7412      0.99696119
    472000  -1299.1285      224.96117     -1524.0897      295.96004     -1543.5652      3840.7412      0.99696119
    473000  -1313.1044      219.09703     -1532.2015      288.24515     -143.61971      3840.7412      0.99696119
    474000  -1301.6076      215.09837     -1516.706       282.98449     -584.12887      3840.7412      0.99696119
    475000  -1319.4249      232.80067     -1552.2255      306.27372     -93.672097      3840.7412      0.99696119
    476000  -1315.3551      221.39136     -1536.7464      291.26359     -685.12556      3840.7412      0.99696119
    477000  -1323.8091      224.69521     -1548.5043      295.61015     -911.26994      3840.7412      0.99696119
    478000  -1318.0889      221.07097     -1539.1598      290.84208     -200.44925      3840.7412      0.99696119
    479000  -1340.1437      209.57947     -1549.7232      275.72381      1097.4801      3840.7412      0.99696119
    480000  -1309.7602      237.0887      -1546.8489      311.91508      270.54131      3840.7412      0.99696119
    481000  -1296.9914      224.80552     -1521.7969      295.75527     -826.80705      3840.7412      0.99696119
    482000  -1300.4854      228.84506     -1529.3305      301.06971      461.8852       3840.7412      0.99696119
    483000  -1305.8509      235.3991      -1541.25        309.69223     -1464.7156      3840.7412      0.99696119
    484000  -1301.5661      217.74031     -1519.3064      286.46024     -1609.2899      3840.7412      0.99696119
    485000  -1290.0763      218.5747      -1508.651       287.55798     -208.378        3840.7412      0.99696119
    486000  -1295.5411      228.69237     -1524.2334      300.86883     -332.16731      3840.7412      0.99696119
    487000  -1295.7544      220.4191      -1516.1735      289.98448      846.84256      3840.7412      0.99696119
    488000  -1329.1862      209.68003     -1538.8662      275.8561      -1204.3986      3840.7412      0.99696119
    489000  -1299.3498      229.69362     -1529.0434      302.18608     -281.1675       3840.7412      0.99696119
    490000  -1316.8336      208.95109     -1525.7847      274.8971       330.04838      3840.7412      0.99696119
    491000  -1286.3398      244.70008     -1531.0398      321.92865      786.55032      3840.7412      0.99696119
    492000  -1305.07        232.24443     -1537.3145      305.54193     -1155.1254      3840.7412      0.99696119
    493000  -1292.9132      247.40728     -1540.3205      325.49025     -24.472245      3840.7412      0.99696119
    494000  -1327.0543      218.94764     -1546.002       288.04862     -977.61948      3840.7412      0.99696119
    495000  -1299.5995      234.9484      -1534.5479      309.09929      94.590906      3840.7412      0.99696119
    496000  -1303.7003      240.31878     -1544.0191      316.16459     -948.4435       3840.7412      0.99696119
    497000  -1311.6793      219.83076     -1531.51        289.21045     -848.75398      3840.7412      0.99696119
    498000  -1310.6573      238.84218     -1549.4995      314.22197      866.30455      3840.7412      0.99696119
    499000  -1351.5604      195.37565     -1546.936       257.03719      400.99062      3840.7412      0.99696119
    500000  -1271.4927      227.8413      -1499.334       299.74916     -1.9101062      3840.7412      0.99696119
    501000  -1311.0554      230.50491     -1541.5603      303.25341     -897.69174      3840.7412      0.99696119
    502000  -1308.0592      229.33288     -1537.392       301.71149     -392.77909      3840.7412      0.99696119
    503000  -1263.9171      238.24289     -1502.16        313.43353      2222.1653      3840.7412      0.99696119
    504000  -1337.6074      225.85423     -1563.4616      297.13495     -891.55806      3840.7412      0.99696119
    505000  -1324.1221      242.64026     -1566.7623      319.21874     -479.19167      3840.7412      0.99696119
    506000  -1294.2465      241.63982     -1535.8863      317.90256      1053.632       3840.7412      0.99696119
    507000  -1313.307       220.14109     -1533.4481      289.61872     -413.93017      3840.7412      0.99696119
    508000  -1318.3546      239.27496     -1557.6296      314.79133      365.34323      3840.7412      0.99696119
    509000  -1287.7058      233.76419     -1521.47        307.54135     -617.06151      3840.7412      0.99696119
    510000  -1321.3425      213.11083     -1534.4533      280.36968     -246.40811      3840.7412      0.99696119
    511000  -1263.1214      258.1851      -1521.3065      339.66961     -1177.4721      3840.7412      0.99696119
    512000  -1305.4472      234.32223     -1539.7694      308.2755       9.3600108      3840.7412      0.99696119
    513000  -1301.2513      218.98229     -1520.2336      288.0942      -694.68646      3840.7412      0.99696119
    514000  -1246.8162      254.40966     -1501.2259      334.70263      643.6143       3840.7412      0.99696119
    515000  -1279.4893      241.29229     -1520.7816      317.44535     -2366.2509      3840.7412      0.99696119
    516000  -1315.4363      230.69171     -1546.128       303.49917     -796.7146       3840.7412      0.99696119
    517000  -1315.4496      219.89101     -1535.3406      289.28971     -347.08298      3840.7412      0.99696119
    518000  -1297.0225      239.1586      -1536.1811      314.63825      30.645838      3840.7412      0.99696119
    519000  -1277.6376      242.02069     -1519.6583      318.40363      1916.0692      3840.7412      0.99696119
    520000  -1298.6464      217.26748     -1515.9139      285.83818      118.11482      3840.7412      0.99696119
    521000  -1305.7406      221.29156     -1527.0321      291.13228     -187.70255      3840.7412      0.99696119
    522000  -1273.3275      231.75276     -1505.0802      304.89509     -133.67055      3840.7412      0.99696119
    523000  -1279.4212      244.02687     -1523.4481      321.04297      242.77696      3840.7412      0.99696119
    524000  -1321.7709      228.61721     -1550.3881      300.76995     -1832.4786      3840.7412      0.99696119
    525000  -1282.4101      243.11726     -1525.5273      319.84628      538.10539      3840.7412      0.99696119
    526000  -1316.4031      232.3003      -1548.7034      305.61544     -974.0049       3840.7412      0.99696119
    527000  -1298.4569      218.8185      -1517.2754      287.87871     -7.4791796      3840.7412      0.99696119
    528000  -1301.902       218.12019     -1520.0222      286.96001     -346.52799      3840.7412      0.99696119
    529000  -1294.7959      232.0858      -1526.8817      305.33324     -1226.8324      3840.7412      0.99696119
    530000  -1350.4768      198.36485     -1548.8417      260.96979     -1674.2114      3840.7412      0.99696119
    531000  -1318.9845      203.59083     -1522.5754      267.84511     -1299.9421      3840.7412      0.99696119
    532000  -1325.0493      227.20354     -1552.2528      298.91012     -880.48334      3840.7412      0.99696119
    533000  -1313.9588      227.41793     -1541.3767      299.19217     -138.1996       3840.7412      0.99696119
    534000  -1286.8968      239.01051     -1525.9073      314.44342     -804.68237      3840.7412      0.99696119
    535000  -1301.9883      234.4886      -1536.4769      308.49437     -377.52965      3840.7412      0.99696119
    536000  -1288.392       247.44494     -1535.8369      325.5398      -859.62616      3840.7412      0.99696119
    537000  -1294.6704      225.11763     -1519.788       296.16588     -1075.8414      3840.7412      0.99696119
    538000  -1307.5321      214.69337     -1522.2254      282.45167      1405.1387      3840.7412      0.99696119
    539000  -1338.0324      209.63309     -1547.6655      275.79435     -443.54115      3840.7412      0.99696119
    540000  -1306.3704      233.43586     -1539.8062      307.10938      314.5615       3840.7412      0.99696119
    541000  -1296.3456      219.06696     -1515.4125      288.20558      194.55312      3840.7412      0.99696119
    542000  -1298.5307      225.8006      -1524.3313      297.0644      -587.96914      3840.7412      0.99696119
    543000  -1309.0768      221.2152      -1530.292       291.03183      222.28285      3840.7412      0.99696119
    544000  -1283.0009      225.52447     -1508.5253      296.70113     -3107.4143      3840.7412      0.99696119
    545000  -1315.7714      226.33045     -1542.1019      297.76147     -787.79586      3840.7412      0.99696119
    546000  -1321.4471      222.96918     -1544.4163      293.33937     -1287.5497      3840.7412      0.99696119
    547000  -1309.6733      225.06788     -1534.7412      296.10043      703.63009      3840.7412      0.99696119
    548000  -1279.3592      236.64987     -1516.009       311.33775      644.52855      3840.7412      0.99696119
    549000  -1310.2379      209.34075     -1519.5786      275.40973     -722.88266      3840.7412      0.99696119
    550000  -1302.7707      226.21466     -1528.9854      297.60914     -1722.8194      3840.7412      0.99696119
    551000  -1286.3574      228.02168     -1514.3791      299.98647     -46.081421      3840.7412      0.99696119
    552000  -1317.5944      216.96295     -1534.5573      285.43754     -488.56419      3840.7412      0.99696119
    553000  -1309.1965      242.86141     -1552.0579      319.50968     -19.262356      3840.7412      0.99696119
    554000  -1338.9121      213.50594     -1552.418       280.88949     -1353.3009      3840.7412      0.99696119
    555000  -1270.5161      258.34967     -1528.8657      339.88612     -609.18036      3840.7412      0.99696119
    556000  -1297.7185      219.6917      -1517.4102      289.0275      -1606.6768      3840.7412      0.99696119
    557000  -1303.0979      222.68511     -1525.783       292.96565     -911.10725      3840.7412      0.99696119
    558000  -1333.9975      206.93987     -1540.9374      272.25113     -233.37608      3840.7412      0.99696119
    559000  -1306.0386      218.591       -1524.6296      287.57941      534.45242      3840.7412      0.99696119
    560000  -1315.1149      206.52942     -1521.6443      271.71114      708.58392      3840.7412      0.99696119
    561000  -1303.6153      221.0933      -1524.7086      290.87145     -1459.9598      3840.7412      0.99696119
    562000  -1340.647       231.07655     -1571.7236      304.00546     -3.3018957      3840.7412      0.99696119
    563000  -1306.138       225.30027     -1531.4383      296.40617      817.26711      3840.7412      0.99696119
    564000  -1289.4615      234.39388     -1523.8553      308.36976     -116.68325      3840.7412      0.99696119
    565000  -1281.8576      244.30975     -1526.1674      321.41513      106.18371      3840.7412      0.99696119
    566000  -1314.6831      233.31262     -1547.9957      306.94725     -925.50347      3840.7412      0.99696119
    567000  -1293.6874      223.95421     -1517.6417      294.63528     -72.766935      3840.7412      0.99696119
    568000  -1266.46        218.11903     -1484.579       286.95849     -575.52435      3840.7412      0.99696119
    569000  -1302.5455      218.58399     -1521.1294      287.57019      1118.3225      3840.7412      0.99696119
    570000  -1298.923       226.53631     -1525.4593      298.0323       1618.9229      3840.7412      0.99696119
    571000  -1317.6939      214.6154      -1532.3093      282.34909     -1923.6175      3840.7412      0.99696119
    572000  -1273.8293      240.95155     -1514.7808      316.99706      760.38905      3840.7412      0.99696119
    573000  -1321.9182      214.51232     -1536.4305      282.21348      234.51384      3840.7412      0.99696119
    574000  -1311.756       223.60923     -1535.3652      294.18143     -864.00976      3840.7412      0.99696119
    575000  -1336.0418      217.11167     -1553.1534      285.6332      -459.92797      3840.7412      0.99696119
    576000  -1326.3087      210.53427     -1536.843       276.97993     -530.17755      3840.7412      0.99696119
    577000  -1308.8041      222.57151     -1531.3756      292.8162      -707.78463      3840.7412      0.99696119
    578000  -1343.865       224.62833     -1568.4933      295.52216     -9.9513823      3840.7412      0.99696119
    579000  -1321.5342      223.52154     -1545.0558      294.06605     -545.66262      3840.7412      0.99696119
    580000  -1328.2877      233.9566      -1562.2443      307.79447     -175.51094      3840.7412      0.99696119
    581000  -1371.2478      206.40704     -1577.6549      271.55013     -1520.5247      3840.7412      0.99696119
    582000  -1298.0836      220.82657     -1518.9102      290.52054     -10.445671      3840.7412      0.99696119
    583000  -1284.5767      233.11435     -1517.691       306.6864      -559.11072      3840.7412      0.99696119
    584000  -1301.7427      235.95941     -1537.7021      310.42939     -652.88777      3840.7412      0.99696119
    585000  -1314.134       235.94952     -1550.0836      310.41637     -1332.8603      3840.7412      0.99696119
    586000  -1317.7698      225.76053     -1543.5303      297.01169      443.00511      3840.7412      0.99696119
    587000  -1311.6764      220.79998     -1532.4764      290.48556     -151.25304      3840.7412      0.99696119
    588000  -1352.8003      226.71788     -1579.5181      298.27118     -909.67656      3840.7412      0.99696119
    589000  -1343.4833      223.43183     -1566.9152      293.94804      891.72589      3840.7412      0.99696119
    590000  -1335.7669      217.357       -1553.1239      285.95595      2709.221       3840.7412      0.99696119
    591000  -1351.6222      226.30332     -1577.9256      297.72579     -444.92448      3840.7412      0.99696119
    592000  -1336.993       217.26289     -1554.2559      285.83214      159.27172      3840.7412      0.99696119
    593000  -1296.6061      224.45265     -1521.0588      295.29103      1308.567       3840.7412      0.99696119
    594000  -1328.745       213.80187     -1542.5469      281.27881     -683.09587      3840.7412      0.99696119
    595000  -1308.4463      213.75976     -1522.2061      281.22341     -1877.563       3840.7412      0.99696119
    596000  -1280.1692      249.35276     -1529.522       328.04974      379.4145       3840.7412      0.99696119
    597000  -1293.5605      240.69355     -1534.254       316.65765      399.67439      3840.7412      0.99696119
    598000  -1323.7457      233.26891     -1557.0146      306.88975     -1492.2358      3840.7412      0.99696119
    599000  -1283.802       228.03329     -1511.8353      300.00174     -1524.7535      3840.7412      0.99696119
    600000  -1317.3809      220.47695     -1537.8579      290.06057     -354.22908      3840.7412      0.99696119
    601000  -1315.4212      223.95864     -1539.3799      294.6411      -1813.327       3840.7412      0.99696119
    602000  -1271.8483      259.87142     -1531.7198      341.88815     -374.31624      3840.7412      0.99696119
    603000  -1277.632       226.99556     -1504.6276      298.6365      -414.34776      3840.7412      0.99696119
    604000  -1320.7967      212.07981     -1532.8765      279.01325     -1207.4082      3840.7412      0.99696119
    605000  -1302.4039      236.64239     -1539.0463      311.32792     -1604.1408      3840.7412      0.99696119
    606000  -1348.8869      208.5671      -1557.454       274.39191      23.861634      3840.7412      0.99696119
    607000  -1344.7164      208.2411      -1552.9575      273.96304     -1149.115       3840.7412      0.99696119
    608000  -1272.9599      241.38114     -1514.3411      317.56223     -1324.4403      3840.7412      0.99696119
    609000  -1275.7797      216.59943     -1492.3791      284.9593      -3432.9075      3840.7412      0.99696119
    610000  -1281.3497      239.49495     -1520.8447      315.08076      1480.7524      3840.7412      0.99696119
    611000  -1296.5218      211.77939     -1508.3012      278.61803     -808.05771      3840.7412      0.99696119
    612000  -1271.3994      226.51528     -1497.9146      298.00464      1273.9764      3840.7412      0.99696119
    613000  -1334.8505      222.16368     -1557.0142      292.27966      997.9705       3840.7412      0.99696119
    614000  -1349.4382      208.09807     -1557.5363      273.77486     -1046.1901      3840.7412      0.99696119
    615000  -1299.9833      229.65018     -1529.6334      302.12893     -1238.8617      3840.7412      0.99696119
    616000  -1305.9635      226.6333      -1532.5968      298.1599      -1772.7136      3840.7412      0.99696119
    617000  -1269.3405      231.6162      -1500.9567      304.71543      1505.6811      3840.7412      0.99696119
    618000  -1306.2012      211.87674     -1518.078       278.74609      1488.0692      3840.7412      0.99696119
    619000  -1318.6707      205.99014     -1524.6608      271.00166     -516.81655      3840.7412      0.99696119
    620000  -1273.6772      220.30888     -1493.9861      289.83947      203.19061      3840.7412      0.99696119
    621000  -1280.1307      222.26175     -1502.3924      292.40868     -1975.5056      3840.7412      0.99696119
    622000  -1278.964       245.26938     -1524.2334      322.67762      1767.5947      3840.7412      0.99696119
    623000  -1311.8392      215.28176     -1527.121       283.22577      748.59719      3840.7412      0.99696119
    624000  -1319.2616      213.62877     -1532.8904      281.05108     -1168.6326      3840.7412      0.99696119
    625000  -1287.2814      235.26937     -1522.5507      309.52156     -381.29854      3840.7412      0.99696119
    626000  -1304.5236      221.31493     -1525.8385      291.16303     -586.23111      3840.7412      0.99696119
    627000  -1280.841       237.49925     -1518.3403      312.45521      1457.4606      3840.7412      0.99696119
    628000  -1308.5762      230.51052     -1539.0867      303.2608       381.85841      3840.7412      0.99696119
    629000  -1312.3238      228.24242     -1540.5662      300.27687     -791.72574      3840.7412      0.99696119
    630000  -1295.7941      216.21756     -1512.0117      284.4569      -671.45665      3840.7412      0.99696119
    631000  -1299.638       221.9411      -1521.5791      291.98682     -698.72947      3840.7412      0.99696119
    632000  -1304.0629      218.06033     -1522.1232      286.88126      1346.9022      3840.7412      0.99696119
    633000  -1258.9913      232.7165      -1491.7078      306.16299      1143.169       3840.7412      0.99696119
    634000  -1313.2125      217.75996     -1530.9724      286.4861      -1552.9742      3840.7412      0.99696119
    635000  -1294.1594      227.71608     -1521.8755      299.58442     -618.47598      3840.7412      0.99696119
    636000  -1307.0574      231.90175     -1538.9592      305.0911      -648.41716      3840.7412      0.99696119
    637000  -1289.127       214.29326     -1503.4203      281.92529     -1060.387       3840.7412      0.99696119
    638000  -1273.8289      220.12141     -1493.9503      289.59283      432.32048      3840.7412      0.99696119
    639000  -1302.7501      217.68724     -1520.4374      286.39042      569.24527      3840.7412      0.99696119
    640000  -1308.2659      224.26936     -1532.5353      295.04989     -332.35687      3840.7412      0.99696119
    641000  -1332.8285      217.26274     -1550.0913      285.83195     -1353.8101      3840.7412      0.99696119
    642000  -1327.8814      216.6136      -1544.495       284.97793      808.20892      3840.7412      0.99696119
    643000  -1331.5126      204.4998      -1536.0125      269.04097     -219.69042      3840.7412      0.99696119
    644000  -1320.036       207.03667     -1527.0727      272.37848      1690.4443      3840.7412      0.99696119
    645000  -1285.0821      230.96262     -1516.0447      303.85558      2735.6959      3840.7412      0.99696119
    646000  -1312.6525      235.41175     -1548.0642      309.70888      2389.2917      3840.7412      0.99696119
    647000  -1279.4826      222.44814     -1501.9308      292.65389     -602.77973      3840.7412      0.99696119
    648000  -1292.1335      233.58701     -1525.7206      307.30824     -355.54983      3840.7412      0.99696119
    649000  -1303.9148      215.32081     -1519.2356      283.27714      452.85757      3840.7412      0.99696119
    650000  -1304.356       229.89187     -1534.2479      302.44689      1150.9937      3840.7412      0.99696119
[...]
   2842000  -1259.414       230.9736      -1490.3876      303.87002      391.8863       3840.7412      0.99696119
   2843000  -1300.7231      232.88677     -1533.6099      306.387        37.364548      3840.7412      0.99696119
   2844000  -1282.6853      241.90937     -1524.5947      318.25717     -383.46479      3840.7412      0.99696119
   2845000  -1296.5207      224.27228     -1520.793       295.05374      982.87789      3840.7412      0.99696119
   2846000  -1264.8272      225.71332     -1490.5405      296.94958      889.98564      3840.7412      0.99696119
   2847000  -1315.6826      209.58357     -1525.2662      275.72919      505.90434      3840.7412      0.99696119
   2848000  -1300.399       246.91407     -1547.3131      324.84139     -614.54313      3840.7412      0.99696119
   2849000  -1330.9237      222.69563     -1553.6193      292.97948      316.98304      3840.7412      0.99696119
   2850000  -1320.798       208.8597      -1529.6577      274.77686     -232.09297      3840.7412      0.99696119
   2851000  -1284.1699      243.37265     -1527.5425      320.18228     -1045.1277      3840.7412      0.99696119
   2852000  -1330.3665      220.37549     -1550.7419      289.9271       1074.484       3840.7412      0.99696119
   2853000  -1287.7601      226.27092     -1514.031       297.68315      19.238094      3840.7412      0.99696119
   2854000  -1304.1866      245.11653     -1549.3031      322.47654     -303.13566      3840.7412      0.99696119
   2855000  -1315.1158      218.62238     -1533.7382      287.62069     -474.24975      3840.7412      0.99696119
   2856000  -1294.3477      251.80312     -1546.1508      331.27344     -416.47408      3840.7412      0.99696119
   2857000  -1338.195       200.0334      -1538.2284      263.16495     -479.09572      3840.7412      0.99696119
   2858000  -1334.2139      229.68329     -1563.8972      302.17248     -1487.7456      3840.7412      0.99696119
   2859000  -1319.3417      215.37153     -1534.7132      283.34387     -2004.8246      3840.7412      0.99696119
   2860000  -1267.1521      231.76649     -1498.9186      304.91315      2318.4266      3840.7412      0.99696119
   2861000  -1336.5755      220.63005     -1557.2056      290.26199     -2463.1163      3840.7412      0.99696119
   2862000  -1286.3727      221.69767     -1508.0703      291.66656      439.93267      3840.7412      0.99696119
   2863000  -1298.3709      217.86841     -1516.2393      286.62878      1678.8199      3840.7412      0.99696119
   2864000  -1300.8287      217.36337     -1518.192       285.96433     -861.69409      3840.7412      0.99696119
   2865000  -1299.058       231.29342     -1530.3515      304.29078     -1152.9325      3840.7412      0.99696119
   2866000  -1325.9778      213.89718     -1539.8749      281.4042      -1472.5859      3840.7412      0.99696119
   2867000  -1306.8578      228.85926     -1535.7171      301.08839      1491.5941      3840.7412      0.99696119
   2868000  -1293.2374      231.99441     -1525.2318      305.21301     -819.6421       3840.7412      0.99696119
   2869000  -1310.3448      215.03468     -1525.3795      282.9007       507.54023      3840.7412      0.99696119
   2870000  -1318.7278      218.89863     -1537.6265      287.98414     -575.27809      3840.7412      0.99696119
   2871000  -1296.5023      243.1798      -1539.6821      319.92856     -1070.0232      3840.7412      0.99696119
   2872000  -1290.0321      231.98736     -1522.0195      305.20373     -773.26353      3840.7412      0.99696119
   2873000  -1297.5136      245.45285     -1542.9664      322.919       -87.207564      3840.7412      0.99696119
   2874000  -1305.2551      225.47828     -1530.7334      296.64036     -1497.3991      3840.7412      0.99696119
   2875000  -1316.9613      219.05709     -1536.0184      288.1926       110.7875       3840.7412      0.99696119
   2876000  -1334.3625      216.848       -1551.2105      285.28631      103.51477      3840.7412      0.99696119
   2877000  -1352.4703      212.34677     -1564.8171      279.36448     -1835.3371      3840.7412      0.99696119
   2878000  -1281.2317      243.44703     -1524.6787      320.28013      881.40986      3840.7412      0.99696119
   2879000  -1332.0496      219.33219     -1551.3818      288.55452     -595.33931      3840.7412      0.99696119
   2880000  -1337.6212      225.69347     -1563.3147      296.92346     -289.12034      3840.7412      0.99696119
   2881000  -1314.8423      227.28992     -1542.1322      299.02376     -1726.6707      3840.7412      0.99696119
   2882000  -1323.048       213.04173     -1536.0897      280.27876      1874.2139      3840.7412      0.99696119
   2883000  -1315.4751      214.34436     -1529.8194      281.99251     -1046.5845      3840.7412      0.99696119
   2884000  -1297.0474      234.84913     -1531.8965      308.96869     -2035.4065      3840.7412      0.99696119
   2885000  -1311.5291      222.79855     -1534.3276      293.11489     -615.38872      3840.7412      0.99696119
   2886000  -1322.2759      214.39949     -1536.6754      282.06505     -2943.2192      3840.7412      0.99696119
   2887000  -1296.5405      224.6416      -1521.1821      295.53961      649.52824      3840.7412      0.99696119
   2888000  -1292.8177      240.86838     -1533.6861      316.88765      522.45496      3840.7412      0.99696119
   2889000  -1328.857       201.39601     -1530.253       264.9576      -334.53644      3840.7412      0.99696119
   2890000  -1306           242.72815     -1548.7281      319.33437      81.675208      3840.7412      0.99696119
   2891000  -1291.2769      229.93971     -1521.2166      302.50983      2223.4797      3840.7412      0.99696119
   2892000  -1298.0116      234.23026     -1532.2419      308.15451     -230.15748      3840.7412      0.99696119
   2893000  -1305.9537      219.87086     -1525.8246      289.2632      -2397.8785      3840.7412      0.99696119
   2894000  -1321.7697      234.13385     -1555.9036      308.02767     -3242.7359      3840.7412      0.99696119
   2895000  -1278.0079      226.25204     -1504.26        297.65832      472.89507      3840.7412      0.99696119
   2896000  -1298.524       235.39756     -1533.9216      309.69021      190.6772       3840.7412      0.99696119
   2897000  -1311.9712      215.71702     -1527.6882      283.79839     -2412.9582      3840.7412      0.99696119
   2898000  -1277.4036      237.05087     -1514.4544      311.86531      872.48076      3840.7412      0.99696119
   2899000  -1316.5768      213.8474      -1530.4242      281.33871     -461.16574      3840.7412      0.99696119
   2900000  -1285.7877      220.17962     -1505.9673      289.66942      917.20402      3840.7412      0.99696119
   2901000  -1302.0005      216.33902     -1518.3395      284.6167       1942.9449      3840.7412      0.99696119
   2902000  -1306.6611      207.94773     -1514.6088      273.57707     -789.47916      3840.7412      0.99696119
   2903000  -1296.0077      223.38986     -1519.3975      293.89281     -1287.1392      3840.7412      0.99696119
   2904000  -1327.509       215.34629     -1542.8553      283.31066     -497.04286      3840.7412      0.99696119
   2905000  -1280.2567      231.43653     -1511.6933      304.47905      69.882285      3840.7412      0.99696119
   2906000  -1299.889       233.39943     -1533.2884      307.06146      707.3649       3840.7412      0.99696119
   2907000  -1283.7575      230.7116      -1514.4691      303.52534      1443.7497      3840.7412      0.99696119
   2908000  -1282.0923      239.67499     -1521.7673      315.31762     -857.99319      3840.7412      0.99696119
   2909000  -1326.6305      223.59015     -1550.2206      294.15632      777.78306      3840.7412      0.99696119
   2910000  -1291.2307      218.17337     -1509.404       287.02997     -1812.473       3840.7412      0.99696119
   2911000  -1318.8036      226.54811     -1545.3517      298.04783     -1128.4962      3840.7412      0.99696119
   2912000  -1287.6433      225.50111     -1513.1444      296.67039      565.81016      3840.7412      0.99696119
   2913000  -1337.0602      231.10008     -1568.1603      304.03642     -135.82591      3840.7412      0.99696119
   2914000  -1305.2873      219.4762      -1524.7635      288.74398     -1699.934       3840.7412      0.99696119
   2915000  -1326.2543      225.05315     -1551.3074      296.08105      300.92725      3840.7412      0.99696119
   2916000  -1320.3951      223.17073     -1543.5658      293.60454      1196.0769      3840.7412      0.99696119
   2917000  -1274.822       221.63035     -1496.4523      291.578       -1430.935       3840.7412      0.99696119
   2918000  -1301.991       232.4306      -1534.4216      305.78686     -1651.6201      3840.7412      0.99696119
   2919000  -1291.5025      233.74602     -1525.2485      307.51743     -372.45695      3840.7412      0.99696119
   2920000  -1306.6902      208.52384     -1515.214       274.335       -1976.2202      3840.7412      0.99696119
   2921000  -1289.1181      243.28883     -1532.4069      320.07201      1049.6527      3840.7412      0.99696119
   2922000  -1324.3437      220.9882      -1545.3319      290.73318      2260.5775      3840.7412      0.99696119
   2923000  -1317.1185      231.83392     -1548.9524      305.00187     -1940.9937      3840.7412      0.99696119
   2924000  -1290.5003      232.56996     -1523.0703      305.9702       730.94078      3840.7412      0.99696119
   2925000  -1317.2964      206.02503     -1523.3214      271.04756     -1541.7328      3840.7412      0.99696119
   2926000  -1334.7086      210.74443     -1545.453       277.25642     -2119.2072      3840.7412      0.99696119
   2927000  -1313.6892      227.16305     -1540.8523      298.85684      879.52465      3840.7412      0.99696119
   2928000  -1220.295       255.40122     -1475.6962      336.00712     -316.18028      3840.7412      0.99696119
   2929000  -1281.9764      245.19918     -1527.1756      322.58527     -1064.1557      3840.7412      0.99696119
   2930000  -1307.358       224.81193     -1532.1699      295.7637       644.78264      3840.7412      0.99696119
   2931000  -1302.84        225.83392     -1528.6739      297.10823     -1533.5612      3840.7412      0.99696119
   2932000  -1301.3348      242.11207     -1543.4469      318.52385     -391.43478      3840.7412      0.99696119
   2933000  -1291.9127      220.5331      -1512.4458      290.13446      57.361464      3840.7412      0.99696119
   2934000  -1291.8036      219.03301     -1510.8366      288.16093      433.83851      3840.7412      0.99696119
   2935000  -1306.3105      212.03696     -1518.3474      278.95689      497.36128      3840.7412      0.99696119
   2936000  -1335.0251      199.2747      -1534.2998      262.16679     -866.29051      3840.7412      0.99696119
   2937000  -1317.8867      235.72844     -1553.6151      310.12552      218.33159      3840.7412      0.99696119
   2938000  -1332.2472      213.89963     -1546.1468      281.40742      1284.3363      3840.7412      0.99696119
   2939000  -1311.4659      234.09509     -1545.561       307.97667      1096.699       3840.7412      0.99696119
   2940000  -1280.9963      227.2794      -1508.2757      299.00992     -1753.6664      3840.7412      0.99696119
   2941000  -1292.5182      212.64138     -1505.1595      279.75207      351.12856      3840.7412      0.99696119
   2942000  -1284.3576      222.78186     -1507.1395      293.09293      1280.3508      3840.7412      0.99696119
   2943000  -1290.5273      230.52693     -1521.0542      303.28239      207.2121       3840.7412      0.99696119
   2944000  -1303.2058      225.14562     -1528.3514      296.20271     -863.28457      3840.7412      0.99696119
   2945000  -1255.6738      229.74053     -1485.4143      302.24779     -1033.266       3840.7412      0.99696119
   2946000  -1292.5212      232.3476      -1524.8688      305.67766     -343.52375      3840.7412      0.99696119
   2947000  -1305.5844      209.59563     -1515.18        275.74506     -598.29524      3840.7412      0.99696119
   2948000  -1307.035       218.52967     -1525.5647      287.49872     -483.24112      3840.7412      0.99696119
   2949000  -1333.5485      212.14178     -1545.6903      279.09479     -2091.3565      3840.7412      0.99696119
   2950000  -1291.6973      237.05013     -1528.7474      311.86434      105.29931      3840.7412      0.99696119
   2951000  -1318.6759      216.97879     -1535.6547      285.45839     -2007.9578      3840.7412      0.99696119
   2952000  -1281.7893      228.11356     -1509.9028      300.10734     -1260.8273      3840.7412      0.99696119
   2953000  -1316.6601      232.01584     -1548.6759      305.24119      1641.8667      3840.7412      0.99696119
   2954000  -1331.9017      222.73812     -1554.6398      293.03539     -801.78458      3840.7412      0.99696119
   2955000  -1332.3394      208.7314      -1541.0708      274.60808     -1200.2873      3840.7412      0.99696119
   2956000  -1286.5264      223.4227      -1509.9491      293.93602     -1533.8904      3840.7412      0.99696119
   2957000  -1330.6669      212.5809      -1543.2478      279.6725      -1161.1451      3840.7412      0.99696119
   2958000  -1307.4458      226.4259      -1533.8717      297.88705      252.47514      3840.7412      0.99696119
   2959000  -1305.2122      232.49221     -1537.7044      305.86791     -270.02473      3840.7412      0.99696119
   2960000  -1263.2754      250.5414      -1513.8168      329.61352      577.53741      3840.7412      0.99696119
   2961000  -1288.4451      244.13643     -1532.5816      321.1871      -1756.3988      3840.7412      0.99696119
   2962000  -1282.2262      230.24323     -1512.4694      302.90914      864.21033      3840.7412      0.99696119
   2963000  -1305.1949      222.1498      -1527.3447      292.26139      75.632462      3840.7412      0.99696119
   2964000  -1273.0808      230.58765     -1503.6684      303.36227     -1932.9747      3840.7412      0.99696119
   2965000  -1339.5029      220.04433     -1559.5472      289.49143      967.49445      3840.7412      0.99696119
   2966000  -1333.3798      219.71815     -1553.098       289.0623       145.01035      3840.7412      0.99696119
   2967000  -1326.0126      212.23117     -1538.2438      279.2124      -1722.5439      3840.7412      0.99696119
   2968000  -1263.9795      228.55844     -1492.538       300.69263     -2379.6958      3840.7412      0.99696119
   2969000  -1272.9851      237.061       -1510.0461      311.87864      1399.0247      3840.7412      0.99696119
   2970000  -1303.4297      215.6209      -1519.0506      283.67194     -686.0545       3840.7412      0.99696119
   2971000  -1289.3579      255.851       -1545.2089      336.59886     -228.85266      3840.7412      0.99696119
   2972000  -1308.3297      229.61905     -1537.9487      302.08797     -647.78281      3840.7412      0.99696119
   2973000  -1319.4789      222.77499     -1542.2539      293.08389      679.88939      3840.7412      0.99696119
   2974000  -1270.6805      252.00425     -1522.6848      331.53806      1234.8465      3840.7412      0.99696119
   2975000  -1298.6063      243.13125     -1541.7376      319.8647       925.14537      3840.7412      0.99696119
   2976000  -1276.7632      239.01246     -1515.7757      314.44599     -1113.9316      3840.7412      0.99696119
   2977000  -1301.6977      223.15547     -1524.8532      293.58446      105.85921      3840.7412      0.99696119
   2978000  -1305.8619      229.64723     -1535.5091      302.12505      342.05037      3840.7412      0.99696119
   2979000  -1329.3844      213.2879      -1542.6723      280.60263     -769.01853      3840.7412      0.99696119
   2980000  -1295.8299      218.75402     -1514.5839      287.79388      1398.3477      3840.7412      0.99696119
   2981000  -1323.1321      208.06977     -1531.2018      273.73763     -1477.3107      3840.7412      0.99696119
   2982000  -1280.3649      224.70956     -1505.0744      295.62903     -95.461781      3840.7412      0.99696119
   2983000  -1297.076       226.04976     -1523.1258      297.39219      729.50937      3840.7412      0.99696119
   2984000  -1280.5212      224.41635     -1504.9376      295.24328     -241.30359      3840.7412      0.99696119
   2985000  -1306.7502      224.34916     -1531.0993      295.15488     -657.94785      3840.7412      0.99696119
   2986000  -1283.5362      240.27513     -1523.8113      316.10717     -922.57181      3840.7412      0.99696119
   2987000  -1306.865       208.40976     -1515.2748      274.18493      1087.3041      3840.7412      0.99696119
   2988000  -1276.2387      229.16258     -1505.4013      301.48744     -887.86831      3840.7412      0.99696119
   2989000  -1262.8451      234.12082     -1496.9659      308.01052     -583.15198      3840.7412      0.99696119
   2990000  -1300.5322      244.96173     -1545.4939      322.27287     -837.97393      3840.7412      0.99696119
   2991000  -1285.2473      242.09134     -1527.3387      318.49658     -944.04819      3840.7412      0.99696119
   2992000  -1309.9323      217.14767     -1527.08        285.68057     -145.49038      3840.7412      0.99696119
   2993000  -1277.6474      238.49308     -1516.1405      313.76269     -169.5868       3840.7412      0.99696119
   2994000  -1325.0221      207.63321     -1532.6553      273.16329      760.58539      3840.7412      0.99696119
   2995000  -1296.9986      233.75049     -1530.7491      307.52332     -760.89322      3840.7412      0.99696119
   2996000  -1301.7433      224.45615     -1526.1994      295.29563     -2128.0102      3840.7412      0.99696119
   2997000  -1276.3201      229.74196     -1506.062       302.24967      1233.7423      3840.7412      0.99696119
   2998000  -1299.0976      233.90929     -1533.0069      307.73223     -753.0883       3840.7412      0.99696119
   2999000  -1285.1458      244.58758     -1529.7334      321.78064     -1097.3356      3840.7412      0.99696119
   3000000  -1316.93        229.85        -1546.78        302.39181      1463.5554      3840.7412      0.99696119
Loop time of 2734.3 on 2 procs for 2000000 steps with 384 atoms

Performance: 63.197 ns/day, 0.380 hours/ns, 731.449 timesteps/s
99.6% CPU use with 2 MPI tasks x 1 OpenMP threads

MPI task timing breakdown:
Section |  min time  |  avg time  |  max time  |%varavg| %total
---------------------------------------------------------------
Pair    | 1536.4     | 1743.5     | 1950.6     | 496.0 | 63.76
Bond    | 0.16365    | 0.17044    | 0.17723    |   1.6 |  0.01
Kspace  | 408.07     | 613.53     | 818.98     | 829.5 | 22.44
Neigh   | 107.04     | 107.05     | 107.05     |   0.0 |  3.91
Comm    | 155.73     | 157.13     | 158.53     |  11.2 |  5.75
Output  | 0.54549    | 0.55141    | 0.55733    |   0.8 |  0.02
Modify  | 106.24     | 106.32     | 106.4      |   0.8 |  3.89
Other   |            | 6.056      |            |       |  0.22

Nlocal:            192 ave         195 max         189 min
Histogram: 1 0 0 0 0 0 0 0 0 1
Nghost:         4854.5 ave        4865 max        4844 min
Histogram: 1 0 0 0 0 0 0 0 0 1
Neighs:          69382 ave       69768 max       68996 min
Histogram: 1 0 0 0 0 0 0 0 0 1

Total # of neighbors = 138764
Ave neighs/atom = 361.36458
Ave special neighs/atom = 2
Neighbor list builds = 66598
Dangerous builds = 0

# write data file
write_data data.after_prod.lmp
System init for write_data ...
PPPM initialization ...
  using 12-bit tables for long-range coulomb (src/kspace.cpp:342)
  G vector (1/distance) = 0.31203871
  grid = 15 15 15
  stencil order = 5
  estimated absolute RMS force accuracy = 0.0022228175
  estimated relative force accuracy = 6.6939488e-06
  using double precision FFTW3
  3d grid and FFT values/proc = 6776 1800
Generated 1 of 1 mixed pair_coeff terms from geometric mixing rule

# clean up
undump dPROD
unfix fTHERMO
unfix fMOM
unfix fSHAKE
Total wall time: 1:08:17
