LAMMPS (23 Jun 2022 - Update 4)
  using 1 OpenMP thread(s) per MPI task
# created by fftool

# System settings
units real
boundary p p p  # Periodic boundary conditions

# definition of atoms, bonds, angles
atom_style full
bond_style harmonic
angle_style harmonic

# definition of pair potentials
special_bonds lj/coul 0.0 0.0 0.5
pair_style lj/cut/coul/long 10.0 10.0
pair_modify mix geometric tail yes
kspace_style pppm 1.0e-5

# read data file
read_data data.lmp
Reading data file ...
  orthogonal box = (0 0 0) to (9.865483 9.865483 9.865483)
  1 by 1 by 1 MPI processor grid
  reading atoms ...
  96 atoms
  scanning bonds ...
  1 = max bonds/atom
  scanning angles ...
  1 = max angles/atom
  reading bonds ...
  64 bonds
  reading angles ...
  32 angles
Finding 1-2 1-3 1-4 neighbors ...
  special bond factors lj:    0        0        0.5
  special bond factors coul:  0        0        0.5
     2 = max # of 1-2 neighbors
     1 = max # of 1-3 neighbors
     1 = max # of 1-4 neighbors
     2 = max # of special neighbors
  special bonds CPU = 0.000 seconds
  read_data CPU = 0.004 seconds

# definition of LJ parameters
pair_coeff    1    1     0.000000     0.000000  # Hw Hw
pair_coeff    2    2     0.163049     3.182090  # Ow-Ow

############################################

# remove energy hotspots
minimize 1.0e-4 1.0e-6 100 1000
WARNING: Using 'neigh_modify every 1 delay 0 check yes' setting during minimization (src/min.cpp:187)
PPPM initialization ...
  using 12-bit tables for long-range coulomb (src/kspace.cpp:342)
  G vector (1/distance) = 0.30847861
  grid = 9 9 9
  stencil order = 5
  estimated absolute RMS force accuracy = 0.0027675926
  estimated relative force accuracy = 8.334523e-06
  using double precision FFTW3
  3d grid and FFT values/proc = 4096 729
Generated 1 of 1 mixed pair_coeff terms from geometric mixing rule
Neighbor list info ...
  update every 1 steps, delay 0 steps, check yes
  max neighbors/atom: 2000, page size: 100000
  master list distance cutoff = 12
  ghost atom cutoff = 12
  binsize = 6, bins = 2 2 2
  1 neighbor lists, perpetual/occasional/extra = 1 0 0
  (1) pair lj/cut/coul/long, perpetual
      attributes: half, newton on
      pair build: half/bin/newton
      stencil: half/bin/3d
      bin: standard
Per MPI rank memory allocation (min/avg/max) = 8.317 | 8.317 | 8.317 Mbytes
   Step          Temp          E_pair         E_mol          TotEng         Press
         0   0              638136.64      7.9980495e-09  638136.64      1.8238983e+08
       100   0             -479.29934      35.639196     -443.66014     -3000.3883
Loop time of 0.109115 on 1 procs for 100 steps with 96 atoms

99.6% CPU use with 1 MPI tasks x 1 OpenMP threads

Minimization stats:
  Stopping criterion = max iterations
  Energy initial, next-to-last, final =
      638136.642939087  -443.512347434076  -443.660140992368
  Force two-norm initial, final = 10616948 11.855124
  Force max component initial, final = 6779089.5 2.9831936
  Final line search alpha, max atom move = 0.0086091074 0.025682634
  Iterations, force evaluations = 100 179

MPI task timing breakdown:
Section |  min time  |  avg time  |  max time  |%varavg| %total
---------------------------------------------------------------
Pair    | 0.092408   | 0.092408   | 0.092408   |   0.0 | 84.69
Bond    | 0.00035202 | 0.00035202 | 0.00035202 |   0.0 |  0.32
Kspace  | 0.010929   | 0.010929   | 0.010929   |   0.0 | 10.02
Neigh   | 0.0027949  | 0.0027949  | 0.0027949  |   0.0 |  2.56
Comm    | 0.0020449  | 0.0020449  | 0.0020449  |   0.0 |  1.87
Output  | 1.0605e-05 | 1.0605e-05 | 1.0605e-05 |   0.0 |  0.01
Modify  | 0          | 0          | 0          |   0.0 |  0.00
Other   |            | 0.0005751  |            |       |  0.53

Nlocal:             96 ave          96 max          96 min
Histogram: 1 0 0 0 0 0 0 0 0 0
Nghost:           3664 ave        3664 max        3664 min
Histogram: 1 0 0 0 0 0 0 0 0 0
Neighs:          34674 ave       34674 max       34674 min
Histogram: 1 0 0 0 0 0 0 0 0 0

Total # of neighbors = 34674
Ave neighs/atom = 361.1875
Ave special neighs/atom = 2
Neighbor list builds = 4
Dangerous builds = 0
reset_timestep 0

# constrain water bonds and angles
fix fSHAKE all shake 0.0001 20 0 b 1 a 1
       0 = # of size 2 clusters
       0 = # of size 3 clusters
       0 = # of size 4 clusters
      32 = # of frozen angles
  find clusters CPU = 0.000 seconds

# remove Center of Mass movement every 100 steps
fix fMOM all momentum 100 linear 1 1 1

# define the neighbor list
neighbor 2.0 bin

# IMPORTANT: timestep and temperature and pressure
timestep 1.0
variable vTK equal 298.15
variable vPBAR equal 1.0

# randomize velocities
velocity all create ${vTK} 28810
velocity all create 298.15 28810

# thermostat (solving the ODE)
fix fTHERMO all nvt temp ${vTK} ${vTK} 100
fix fTHERMO all nvt temp 298.15 ${vTK} 100
fix fTHERMO all nvt temp 298.15 298.15 100

# print settings
thermo 1000
thermo_style custom step etotal ke pe temp press vol density
# trajectory output
dump dEQUI all custom 1000 equi.lammpstrj id element xu yu zu
dump_modify dEQUI element H O sort id

# equilibration
# 1 ns
run 1000000
PPPM initialization ...
  using 12-bit tables for long-range coulomb (src/kspace.cpp:342)
  G vector (1/distance) = 0.30847861
  grid = 9 9 9
  stencil order = 5
  estimated absolute RMS force accuracy = 0.0027675926
  estimated relative force accuracy = 8.334523e-06
  using double precision FFTW3
  3d grid and FFT values/proc = 4096 729
Generated 1 of 1 mixed pair_coeff terms from geometric mixing rule
Per MPI rank memory allocation (min/avg/max) = 9.325 | 9.325 | 9.325 Mbytes
   Step         TotEng         KinEng         PotEng          Temp          Press          Volume        Density
         0  -423.30944      55.989897     -479.29934      298.15        -931.68508      960.18531      0.99696118
      1000  -311.86474      52.678152     -364.54289      280.51474      2240.2535      960.18531      0.99696118
      2000  -324.34731      58.29795      -382.64526      310.44054      419.44363      960.18531      0.99696118
      3000  -310.40422      59.795806     -370.20002      318.41673     -4355.4167      960.18531      0.99696118
      4000  -309.87624      55.675244     -365.55148      296.47446     -1516.1066      960.18531      0.99696118
      5000  -313.34278      56.835306     -370.17809      302.65186      106.81784      960.18531      0.99696118
      6000  -311.47023      56.867635     -368.33786      302.82402     -609.77916      960.18531      0.99696118
      7000  -311.22351      62.337555     -373.56107      331.95171     -280.90141      960.18531      0.99696118
      8000  -299.65586      64.456094     -364.11195      343.23307      684.78519      960.18531      0.99696118
      9000  -312.11514      59.61549      -371.73063      317.45653      339.42463      960.18531      0.99696118
     10000  -320.28213      53.887419     -374.16954      286.95416     -2535.9984      960.18531      0.99696118
     11000  -319.32666      56.127065     -375.45373      298.88043     -1841.08        960.18531      0.99696118
     12000  -315.60785      52.998248     -368.6061       282.21927     -249.39835      960.18531      0.99696118
     13000  -303.41081      60.437719     -363.84853      321.83496      242.97648      960.18531      0.99696118
     14000  -326.44327      45.91699      -372.36026      244.51109      999.39094      960.18531      0.99696118
     15000  -317.60616      52.821332     -370.4275       281.27718     -1378.8396      960.18531      0.99696118
     16000  -325.35961      45.364485     -370.7241       241.56896     -73.258728      960.18531      0.99696118
     17000  -319.89125      50.358391     -370.24965      268.16185     -2405.611       960.18531      0.99696118
     18000  -309.56223      54.686899     -364.24913      291.21145     -468.86079      960.18531      0.99696118
     19000  -309.87419      52.097487     -361.97167      277.42265     -2418.732       960.18531      0.99696118
     20000  -291.40383      56.296848     -347.70068      299.78454      438.20386      960.18531      0.99696118
     21000  -327.3085       54.109895     -381.41839      288.13886      1778.0422      960.18531      0.99696118
     22000  -323.86485      50.869804     -374.73466      270.88516     -220.19426      960.18531      0.99696118
     23000  -327.82422      54.070557     -381.89478      287.92939      262.53068      960.18531      0.99696118
     24000  -319.99874      51.624198     -371.62293      274.90236      3089.2168      960.18531      0.99696118
     25000  -345.1644       48.051692     -393.2161       255.87852      1947.7354      960.18531      0.99696118
     26000  -319.99083      55.733456     -375.72428      296.78444     -3679.9743      960.18531      0.99696118
     27000  -305.89748      56.460191     -362.35767      300.65435     -665.38339      960.18531      0.99696118
     28000  -299.94746      62.766151     -362.71361      334.23401     -1103.7191      960.18531      0.99696118
     29000  -310.91868      57.339273     -368.25796      305.33552      4212.5679      960.18531      0.99696118
     30000  -309.51616      60.599714     -370.11587      322.69759      1426.5687      960.18531      0.99696118
     31000  -308.05147      70.878509     -378.92998      377.43287      2925.6595      960.18531      0.99696118
     32000  -323.01945      64.180154     -387.1996       341.76368     -2558.6696      960.18531      0.99696118
     33000  -325.47173      53.947672     -379.4194       287.27501      930.20833      960.18531      0.99696118
     34000  -314.92775      51.555681     -366.48343      274.5375       2461.958       960.18531      0.99696118
     35000  -318.32487      52.82115      -371.14602      281.27621      1177.245       960.18531      0.99696118
     36000  -329.33043      50.657944     -379.98837      269.75699      379.4431       960.18531      0.99696118
     37000  -317.49535      62.695301     -380.19065      333.85673     -449.77575      960.18531      0.99696118
     38000  -303.70574      59.253457     -362.9592       315.52868     -290.94867      960.18531      0.99696118
     39000  -308.10154      54.385447     -362.48699      289.6062      -45.169167      960.18531      0.99696118
     40000  -308.97813      50.421439     -359.39957      268.49758     -1524.1759      960.18531      0.99696118
     41000  -317.381        58.001234     -375.38224      308.86051      458.95798      960.18531      0.99696118
     42000  -321.79263      49.585386     -371.37801      264.04554     -1232.2614      960.18531      0.99696118
     43000  -312.23248      53.567762     -365.80024      285.25197     -1406.8997      960.18531      0.99696118
     44000  -327.6227       47.341927     -374.96463      252.09897     -1887.0923      960.18531      0.99696118
     45000  -311.0323       60.822977     -371.85528      323.88648     -2278.4962      960.18531      0.99696118
     46000  -311.80165      53.066037     -364.86768      282.58025     -1562.0851      960.18531      0.99696118
     47000  -330.76603      50.143377     -380.90941      267.01689     -499.05454      960.18531      0.99696118
     48000  -319.45552      46.797588     -366.25311      249.20033      1790.0753      960.18531      0.99696118
     49000  -317.05481      55.096117     -372.15093      293.39056      812.6006       960.18531      0.99696118
     50000  -320.75518      49.432495     -370.18767      263.23139     -1645.0052      960.18531      0.99696118
     51000  -314.24623      55.276868     -369.5231       294.35307     -939.29025      960.18531      0.99696118
     52000  -305.70992      55.959739     -361.66966      297.98941     -1387.7979      960.18531      0.99696118
     53000  -282.02187      80.435068     -362.45694      428.3222       625.6322       960.18531      0.99696118
     54000  -313.77458      53.212614     -366.9872       283.36078     -3461.3613      960.18531      0.99696118
     55000  -304.8186       67.402576     -372.22118      358.92329     -1671.0904      960.18531      0.99696118
     56000  -332.5135       54.613781     -387.12728      290.82209     -237.60013      960.18531      0.99696118
     57000  -325.04147      51.930349     -376.97182      276.53263     -3321.1444      960.18531      0.99696118
     58000  -309.35675      55.680051     -365.0368       296.50005      658.06733      960.18531      0.99696118
     59000  -290.50353      62.505853     -353.00938      332.84791     -1735.5413      960.18531      0.99696118
     60000  -313.73992      50.492379     -364.2323       268.87535      1921.4963      960.18531      0.99696118
     61000  -339.66806      44.90258      -384.57064      239.10929     -2253.1932      960.18531      0.99696118
     62000  -310.60016      54.789626     -365.38978      291.75848      1185.6437      960.18531      0.99696118
     63000  -305.04644      68.060853     -373.10729      362.42866      95.919114      960.18531      0.99696118
     64000  -329.48253      44.97296      -374.45549      239.48407     -1918.5068      960.18531      0.99696118
     65000  -305.98797      57.241846     -363.22982      304.81672     -902.83087      960.18531      0.99696118
     66000  -306.71166      51.591733     -358.30339      274.72948      225.18125      960.18531      0.99696118
     67000  -309.94909      71.44637      -381.39546      380.45677     -980.36781      960.18531      0.99696118
     68000  -301.4167       62.084137     -363.50084      330.60224     -772.47561      960.18531      0.99696118
     69000  -328.40751      51.102698     -379.5102       272.12534      4299.571       960.18531      0.99696118
     70000  -327.16085      50.623157     -377.78401      269.57175      3677.1233      960.18531      0.99696118
     71000  -308.17487      61.067075     -369.24195      325.18632      1194.7062      960.18531      0.99696118
     72000  -321.19884      57.52742      -378.72626      306.33742      2022.6778      960.18531      0.99696118
     73000  -329.48824      51.713109     -381.20135      275.37582      942.56847      960.18531      0.99696118
     74000  -307.84786      58.817499     -366.66536      313.20717     -3444.6422      960.18531      0.99696118
     75000  -312.19272      54.76528      -366.958        291.62883     -1549.3262      960.18531      0.99696118
     76000  -323.31779      65.806027     -389.12381      350.42156     -910.06412      960.18531      0.99696118
     77000  -328.80771      53.203727     -382.01144      283.31346      143.29607      960.18531      0.99696118
     78000  -318.68915      52.231178     -370.92033      278.13457      767.01933      960.18531      0.99696118
     79000  -307.83142      59.098274     -366.92969      314.70232      3783.2722      960.18531      0.99696118
     80000  -319.20235      57.83192      -377.03427      307.9589      -610.34691      960.18531      0.99696118
     81000  -299.11325      59.787626     -358.90088      318.37317      1613.4813      960.18531      0.99696118
     82000  -315.54006      58.220493     -373.76056      310.02808     -2080.4731      960.18531      0.99696118
     83000  -312.23671      57.250505     -369.48721      304.86283      1027.2139      960.18531      0.99696118
     84000  -326.93807      49.627493     -376.56557      264.26977      1955.2017      960.18531      0.99696118
     85000  -311.71583      59.757321     -371.47315      318.21179     -2527.2873      960.18531      0.99696118
     86000  -304.59675      59.691282     -364.28803      317.86013      2049.5192      960.18531      0.99696118
     87000  -309.20509      54.03694      -363.24203      287.75038      3805.3938      960.18531      0.99696118
     88000  -319.02728      54.572672     -373.59995      290.60318     -337.73405      960.18531      0.99696118
     89000  -308.90471      60.543533     -369.44824      322.39843      583.42439      960.18531      0.99696118
     90000  -318.07271      57.415629     -375.48834      305.74212     -1974.8451      960.18531      0.99696118
     91000  -327.75648      51.596489     -379.35297      274.75481      3242.7496      960.18531      0.99696118
     92000  -327.82994      59.135266     -386.96521      314.89931     -671.8765       960.18531      0.99696118
     93000  -312.64997      55.645333     -368.29531      296.31517     -1209.4976      960.18531      0.99696118
     94000  -319.36096      54.886594     -374.24756      292.27484     -1503.9885      960.18531      0.99696118
     95000  -319.33541      61.968828     -381.30424      329.98821      1197.4997      960.18531      0.99696118
     96000  -314.44643      47.868371     -362.31481      254.90233      2239.865       960.18531      0.99696118
     97000  -304.58992      66.399455     -370.98937      353.5816       3683.0542      960.18531      0.99696118
     98000  -322.38918      51.695405     -374.08458      275.28154     -4085.4587      960.18531      0.99696118
     99000  -286.3835       59.902827     -346.28633      318.98662      485.73995      960.18531      0.99696118
    100000  -319.74775      61.070797     -380.81855      325.20614     -783.00815      960.18531      0.99696118
    101000  -297.41034      55.698311     -353.10865      296.59729      1947.2775      960.18531      0.99696118
    102000  -321.12841      50.281262     -371.40967      267.75113     -1666.4149      960.18531      0.99696118
    103000  -312.40516      53.785512     -366.19067      286.4115      -2142.3709      960.18531      0.99696118
    104000  -312.00056      59.641488     -371.64204      317.59497     -409.61491      960.18531      0.99696118
    105000  -332.44568      51.740019     -384.1857       275.51912     -515.74362      960.18531      0.99696118
    106000  -333.22102      45.769215     -378.99024      243.72418      1595.604       960.18531      0.99696118
    107000  -323.13196      58.975058     -382.10701      314.04619      2890.7489      960.18531      0.99696118
    108000  -343.62683      46.933035     -390.55986      249.9216      -94.175235      960.18531      0.99696118
    109000  -326.43902      44.89942      -371.33844      239.09246      1060.6813      960.18531      0.99696118
    110000  -309.44786      50.972299     -360.42016      271.43095     -1875.8238      960.18531      0.99696118
    111000  -326.63823      47.295616     -373.93385      251.85236      2092.7978      960.18531      0.99696118
    112000  -304.69001      63.771569     -368.46158      339.58793      327.0879       960.18531      0.99696118
    113000  -310.03804      61.900971     -371.93901      329.62687      2490.675       960.18531      0.99696118
    114000  -319.25146      54.658648     -373.91011      291.06101      6119.2161      960.18531      0.99696118
    115000  -325.63548      52.638598     -378.27407      280.30411     -4325.8892      960.18531      0.99696118
    116000  -315.07027      51.674361     -366.74463      275.16948      1431.9326      960.18531      0.99696118
    117000  -318.4719       51.521176     -369.99307      274.35376      3783.25        960.18531      0.99696118
    118000  -309.5938       58.547706     -368.1415       311.77051      479.8885       960.18531      0.99696118
    119000  -317.77103      57.002475     -374.7735       303.54205      2253.9883      960.18531      0.99696118
    120000  -323.31578      47.839534     -371.15532      254.74877      2540.8384      960.18531      0.99696118
    121000  -310.8508       51.436326     -362.28712      273.90193     -2769.2584      960.18531      0.99696118
    122000  -307.92652      61.71959      -369.64611      328.66101     -4266.9328      960.18531      0.99696118
    123000  -312.21871      55.059365     -367.27808      293.19486     -5.3811348      960.18531      0.99696118
    124000  -323.412        58.516567     -381.92857      311.60469     -588.98126      960.18531      0.99696118
    125000  -300.7035       61.803944     -362.50744      329.1102      -2439.3369      960.18531      0.99696118
    126000  -321.63951      45.818225     -367.45774      243.98516     -1545.8322      960.18531      0.99696118
    127000  -291.13846      61.493262     -352.63172      327.4558      -1578.7131      960.18531      0.99696118
    128000  -308.75172      54.992736     -363.74446      292.84005     -2163.0993      960.18531      0.99696118
    129000  -303.01816      52.172836     -355.191        277.8239       1037.0818      960.18531      0.99696118
    130000  -314.98061      54.107272     -369.08788      288.1249       735.82478      960.18531      0.99696118
    131000  -307.37082      56.451288     -363.82211      300.60694     -1210.0159      960.18531      0.99696118
    132000  -315.88182      51.248525     -367.13035      272.90187      2391.067       960.18531      0.99696118
    133000  -308.73436      64.384813     -373.11917      342.8535      -983.3733       960.18531      0.99696118
    134000  -327.92133      47.845843     -375.76717      254.78236     -585.46402      960.18531      0.99696118
    135000  -304.40975      55.712748     -360.1225       296.67417      870.60859      960.18531      0.99696118
    136000  -312.05733      55.562175     -367.6195       295.87236     -382.86633      960.18531      0.99696118
    137000  -303.34632      59.47107      -362.81739      316.68748      594.29552      960.18531      0.99696118
    138000  -316.21698      55.106802     -371.32378      293.44746      456.63409      960.18531      0.99696118
    139000  -287.41918      68.577612     -355.99679      365.18044      1260.4283      960.18531      0.99696118
    140000  -316.6643       62.286565     -378.95087      331.68019      3783.2955      960.18531      0.99696118
    141000  -324.34905      53.238462     -377.58751      283.49843      3254.7733      960.18531      0.99696118
    142000  -313.47006      59.611467     -373.08152      317.43511      2140.3025      960.18531      0.99696118
    143000  -337.14762      50.699795     -387.84741      269.97985     -3258.7464      960.18531      0.99696118
    144000  -317.64252      59.958399     -377.60092      319.28254     -671.59193      960.18531      0.99696118
    145000  -321.37344      60.095848     -381.46929      320.01447      1643.4947      960.18531      0.99696118
    146000  -327.23692      56.182253     -383.41917      299.17431     -599.78562      960.18531      0.99696118
    147000  -311.12419      53.755307     -364.87949      286.25066     -781.96325      960.18531      0.99696118
    148000  -331.15203      55.186121     -386.33816      293.86984      1244.242       960.18531      0.99696118
    149000  -312.14236      54.074868     -366.21723      287.95235      101.85686      960.18531      0.99696118
    150000  -301.50213      58.89759      -360.39972      313.63367     -509.79875      960.18531      0.99696118
    151000  -319.23488      53.731783     -372.96666      286.12539     -792.09635      960.18531      0.99696118
    152000  -313.5305       57.661507     -371.192        307.05144     -1772.365       960.18531      0.99696118
    153000  -303.32525      66.259365     -369.58462      352.83562      528.10477      960.18531      0.99696118
    154000  -301.90341      55.962467     -357.86588      298.00394     -1313.7265      960.18531      0.99696118
    155000  -328.63358      48.457397     -377.09097      258.03893      293.70643      960.18531      0.99696118
    156000  -306.73696      53.235597     -359.97255      283.48317      167.62159      960.18531      0.99696118
    157000  -322.19132      58.256091     -380.44741      310.21764      3261.3315      960.18531      0.99696118
    158000  -309.79315      66.343288     -376.13644      353.28251     -1740.2301      960.18531      0.99696118
    159000  -312.81919      50.079067     -362.89825      266.67443      2492.5304      960.18531      0.99696118
    160000  -317.56497      45.428993     -362.99397      241.91247      16.332909      960.18531      0.99696118
    161000  -314.0568       55.663871     -369.72067      296.41389     -210.855        960.18531      0.99696118
    162000  -343.07861      51.697179     -394.77579      275.29099      287.18149      960.18531      0.99696118
    163000  -324.38815      46.385142     -370.77329      247.00403      64.601144      960.18531      0.99696118
    164000  -323.91255      49.820955     -373.73351      265.29997      912.41913      960.18531      0.99696118
    165000  -306.06762      62.949056     -369.01668      335.208        2689.9356      960.18531      0.99696118
    166000  -315.37293      49.985862     -365.35879      266.17811      3412.5816      960.18531      0.99696118
    167000  -319.18534      51.184744     -370.37008      272.56224      3832.6288      960.18531      0.99696118
    168000  -321.6549       54.017938     -375.67283      287.64919     -1173.1657      960.18531      0.99696118
    169000  -315.28883      62.837059     -378.12589      334.6116      -2162.9755      960.18531      0.99696118
    170000  -313.00963      61.341907     -374.35154      326.64982     -1115.7242      960.18531      0.99696118
    171000  -324.8755       44.682887     -369.55839      237.9394       268.10741      960.18531      0.99696118
    172000  -304.99481      62.519977     -367.51478      332.92312      314.05407      960.18531      0.99696118
    173000  -326.21942      54.014989     -380.2344       287.63348     -558.2672       960.18531      0.99696118
    174000  -295.93685      62.257472     -358.19432      331.52526     -678.25626      960.18531      0.99696118
    175000  -315.24694      53.421592     -368.66853      284.4736       1781.0763      960.18531      0.99696118
    176000  -329.65207      52.527227     -382.1793       279.71105     -2648.6336      960.18531      0.99696118
    177000  -312.03642      58.763233     -370.79965      312.9182      -5831.7701      960.18531      0.99696118
    178000  -311.08382      55.486435     -366.57026      295.46903      2135.6693      960.18531      0.99696118
    179000  -331.01051      55.689533     -386.70004      296.55054      129.34753      960.18531      0.99696118
    180000  -313.23581      56.809149     -370.04496      302.51258      3086.9795      960.18531      0.99696118
    181000  -299.21491      52.034566     -351.24948      277.0876      -3929.4593      960.18531      0.99696118
    182000  -323.33817      55.704315     -379.04249      296.62926      4672.0254      960.18531      0.99696118
    183000  -326.62024      55.576639     -382.19688      295.94938      167.34755      960.18531      0.99696118
    184000  -317.9444       54.05431      -371.99871      287.84287     -190.724        960.18531      0.99696118
    185000  -320.50363      57.703648     -378.20728      307.27584     -536.01751      960.18531      0.99696118
    186000  -309.07485      50.450198     -359.52505      268.65073      135.3056       960.18531      0.99696118
    187000  -316.92333      62.339046     -379.26237      331.95965      802.94711      960.18531      0.99696118
    188000  -304.33971      49.534523     -353.87424      263.7747       2474.9947      960.18531      0.99696118
    189000  -336.74981      59.222455     -395.97227      315.36359      326.0841       960.18531      0.99696118
    190000  -309.84307      57.156287     -366.99936      304.36111      1547.1095      960.18531      0.99696118
    191000  -322.14034      57.251822     -379.39216      304.86984     -1369.5832      960.18531      0.99696118
    192000  -323.26176      52.81975      -376.08151      281.26876     -442.29777      960.18531      0.99696118
    193000  -304.25831      58.025393     -362.28371      308.98916     -665.27402      960.18531      0.99696118
    194000  -324.51017      63.55775      -388.06792      338.44933      1021.1309      960.18531      0.99696118
    195000  -303.43758      60.646098     -364.08367      322.94459      1112.3578      960.18531      0.99696118
    196000  -320.27864      57.265939     -377.54457      304.94501      3172.1704      960.18531      0.99696118
    197000  -329.19145      59.265471     -388.45692      315.59266     -4113.6308      960.18531      0.99696118
    198000  -307.25597      61.054981     -368.31095      325.12192     -1393.6432      960.18531      0.99696118
    199000  -305.38725      54.694831     -360.08208      291.25369      1285.9266      960.18531      0.99696118
    200000  -325.03025      57.009363     -382.03961      303.57873     -1422.1254      960.18531      0.99696118
    201000  -327.18038      52.534912     -379.71529      279.75197     -2106.8315      960.18531      0.99696118
    202000  -312.76436      48.78007      -361.54443      259.75718      1984.6513      960.18531      0.99696118
    203000  -317.43881      55.501046     -372.93986      295.54684     -1081.2308      960.18531      0.99696118
    204000  -302.41709      60.035229     -362.45232      319.69167      2946.9525      960.18531      0.99696118
    205000  -320.23752      60.590588     -380.82811      322.64899      2174.4789      960.18531      0.99696118
    206000  -320.91547      49.396316     -370.31179      263.03873      2973.6379      960.18531      0.99696118
    207000  -300.5619       66.448235     -367.01013      353.84136      524.25744      960.18531      0.99696118
    208000  -309.07024      56.696882     -365.76712      301.91475     -2429.2964      960.18531      0.99696118
    209000  -302.5592       58.580546     -361.13975      311.94538      2738.4231      960.18531      0.99696118
    210000  -296.94382      64.465391     -361.40922      343.28258     -1024.0735      960.18531      0.99696118
    211000  -323.60892      55.058065     -378.66698      293.18794      1033.8985      960.18531      0.99696118
    212000  -310.9132       61.319908     -372.23311      326.53268      1327.9085      960.18531      0.99696118
    213000  -327.5167       52.511397     -380.0281       279.62675      667.46682      960.18531      0.99696118
    214000  -314.1474       50.199488     -364.34689      267.31568      361.13642      960.18531      0.99696118
    215000  -311.05126      57.638887     -368.69015      306.93099     -1031.8942      960.18531      0.99696118
    216000  -334.74954      49.84709      -384.59663      265.43914     -3788.1297      960.18531      0.99696118
    217000  -315.92639      63.892074     -379.81847      340.22963      1714.4847      960.18531      0.99696118
    218000  -327.80714      52.491444     -380.29858      279.52051      469.3786       960.18531      0.99696118
    219000  -321.31703      56.266198     -377.58323      299.62132     -839.32719      960.18531      0.99696118
    220000  -316.59054      57.710945     -374.30148      307.3147       242.82547      960.18531      0.99696118
    221000  -321.07818      62.436766     -383.51495      332.48002     -565.59102      960.18531      0.99696118
    222000  -316.52483      58.673733     -375.19856      312.44161      2399.3727      960.18531      0.99696118
    223000  -296.87164      73.721967     -370.59361      392.57448      1096.1305      960.18531      0.99696118
    224000  -306.61398      54.808171     -361.42215      291.85723     -520.86722      960.18531      0.99696118
    225000  -295.99066      64.828185     -360.81884      345.21449     -2426.3516      960.18531      0.99696118
    226000  -285.29863      59.261608     -344.56023      315.57209     -1421.6142      960.18531      0.99696118
    227000  -328.99327      54.018279     -383.01154      287.651       -995.90465      960.18531      0.99696118
    228000  -305.23334      61.656109     -366.88945      328.32296      991.97839      960.18531      0.99696118
    229000  -319.30927      52.215402     -371.52467      278.05056     -1628.2851      960.18531      0.99696118
    230000  -302.19449      57.678427     -359.87292      307.14154     -3076.5274      960.18531      0.99696118
    231000  -306.01809      62.235845     -368.25393      331.4101      -85.49579       960.18531      0.99696118
    232000  -309.17418      50.125045     -359.29923      266.91927      1090.3708      960.18531      0.99696118
    233000  -313.20946      52.870816     -366.08028      281.54068     -675.832        960.18531      0.99696118
    234000  -330.64078      51.321733     -381.96252      273.29171      1536.2049      960.18531      0.99696118
    235000  -309.19384      52.932482     -362.12632      281.86906     -377.63366      960.18531      0.99696118
    236000  -305.45135      51.713458     -357.1648       275.37768      999.12355      960.18531      0.99696118
    237000  -304.15722      56.387977     -360.5452       300.2698      -1157.7528      960.18531      0.99696118
    238000  -320.10525      56.553381     -376.65863      301.15059      2062.4363      960.18531      0.99696118
    239000  -290.23284      67.64959      -357.88243      360.23866      1923.1693      960.18531      0.99696118
    240000  -323.9064       53.035387     -376.94178      282.41704     -253.91472      960.18531      0.99696118
    241000  -311.10311      56.861416     -367.96453      302.7909       2246.1391      960.18531      0.99696118
    242000  -302.94069      63.555974     -366.49666      338.43987      2849.4053      960.18531      0.99696118
    243000  -299.35046      53.392708     -352.74316      284.31979      2147.8667      960.18531      0.99696118
    244000  -320.43824      56.233041     -376.67128      299.44476      280.27537      960.18531      0.99696118
    245000  -310.67647      69.513195     -380.18967      370.16248      1607.962       960.18531      0.99696118
    246000  -318.76977      55.773553     -374.54332      296.99795      6015.8515      960.18531      0.99696118
    247000  -320.29604      49.210028     -369.50607      262.04674     -512.9012       960.18531      0.99696118
    248000  -302.50946      55.049846     -357.5593       293.14417      1782.8383      960.18531      0.99696118
    249000  -304.69009      60.225147     -364.91524      320.703        5835.6954      960.18531      0.99696118
    250000  -314.07797      52.355164     -366.43313      278.7948       55.026762      960.18531      0.99696118
    251000  -299.65125      57.393878     -357.04513      305.6263      -2419.2892      960.18531      0.99696118
    252000  -321.98184      54.446792     -376.42863      289.93286     -137.16277      960.18531      0.99696118
    253000  -318.23312      53.109208     -371.34232      282.81014     -2904.6265      960.18531      0.99696118
    254000  -329.79753      56.766606     -386.56413      302.28603      562.02218      960.18531      0.99696118
    255000  -319.57643      56.230256     -375.80668      299.42993     -4179.6114      960.18531      0.99696118
    256000  -315.97832      56.939139     -372.91746      303.20478     -307.02605      960.18531      0.99696118
    257000  -308.15325      52.446697     -360.59995      279.28222      3156.5479      960.18531      0.99696118
    258000  -319.37833      57.64514      -377.02347      306.96429      4668.277       960.18531      0.99696118
    259000  -314.64319      59.644998     -374.28819      317.61366     -4226.3517      960.18531      0.99696118
    260000  -312.96948      54.63863      -367.60811      290.95441     -3004.051       960.18531      0.99696118
    261000  -294.81946      58.998326     -353.81778      314.17009     -3112.3562      960.18531      0.99696118
    262000  -309.05175      60.806672     -369.85842      323.79965     -1464.6734      960.18531      0.99696118
    263000  -312.70641      62.589903     -375.29631      333.29548     -502.9428       960.18531      0.99696118
    264000  -341.82445      43.593077     -385.41753      232.13609     -1300.1989      960.18531      0.99696118
    265000  -319.26529      66.079035     -385.34432      351.87535     -2259.2124      960.18531      0.99696118
    266000  -314.32276      60.114693     -374.43745      320.11482      178.45131      960.18531      0.99696118
    267000  -337.41237      55.886504     -393.29887      297.59943      360.47295      960.18531      0.99696118
    268000  -327.53927      59.347614     -386.88689      316.03008      1555.1115      960.18531      0.99696118
    269000  -325.84107      50.750995     -376.59206      270.25249      13.744439      960.18531      0.99696118
    270000  -323.74127      57.897933     -381.6392       308.31043     -1372.5735      960.18531      0.99696118
    271000  -335.96374      49.331119     -385.29485      262.69156     -1630.1792      960.18531      0.99696118
    272000  -292.30549      69.18653      -361.49202      368.42297      3132.627       960.18531      0.99696118
    273000  -323.44024      49.573033     -373.01328      263.97976     -1529.9937      960.18531      0.99696118
    274000  -309.61155      59.058563     -368.67011      314.49086      684.06096      960.18531      0.99696118
    275000  -323.50022      53.691158     -377.19138      285.90906     -120.50214      960.18531      0.99696118
    276000  -299.99447      58.650999     -358.64547      312.32055     -750.64322      960.18531      0.99696118
    277000  -305.61423      54.812339     -360.42656      291.87943     -986.67838      960.18531      0.99696118
    278000  -307.00335      63.040853     -370.0442       335.69682      387.384        960.18531      0.99696118
    279000  -288.24553      66.669419     -354.91495      355.01918      2856.8245      960.18531      0.99696118
    280000  -319.73459      52.716768     -372.45136      280.72037     -1068.5386      960.18531      0.99696118
    281000  -327.55767      56.665655     -384.22332      301.74846      4162.778       960.18531      0.99696118
    282000  -317.49222      45.263224     -362.75545      241.02974     -2108.2315      960.18531      0.99696118
    283000  -317.48035      61.663091     -379.14344      328.36014      2584.2097      960.18531      0.99696118
    284000  -298.23265      67.501767     -365.73442      359.45149     -1255.6896      960.18531      0.99696118
    285000  -311.71023      52.928908     -364.63914      281.85003     -2838.5181      960.18531      0.99696118
    286000  -315.73019      62.052196     -377.78238      330.43215     -1461.7591      960.18531      0.99696118
    287000  -339.4354       47.5655       -387.0009       253.28951      3059.6192      960.18531      0.99696118
    288000  -295.63026      57.128054     -352.75832      304.21077      3654.2174      960.18531      0.99696118
    289000  -327.99471      46.342742     -374.33745      246.77825     -1800.4905      960.18531      0.99696118
    290000  -316.99164      51.900224     -368.89186      276.37222      876.63708      960.18531      0.99696118
    291000  -306.26762      54.642195     -360.90982      290.9734      -2443.6013      960.18531      0.99696118
    292000  -327.19423      52.227241     -379.42147      278.1136      -817.38072      960.18531      0.99696118
    293000  -307.71013      61.926873     -369.637        329.7648       5309.9119      960.18531      0.99696118
    294000  -314.8438       60.593446     -375.43725      322.66421     -1149.2203      960.18531      0.99696118
    295000  -314.52103      60.386413     -374.90744      321.56175     -1681.9001      960.18531      0.99696118
    296000  -308.45564      61.628639     -370.08428      328.17669      3729.5852      960.18531      0.99696118
    297000  -308.4721       59.959464     -368.43156      319.28821     -3451.1731      960.18531      0.99696118
    298000  -314.93494      49.878507     -364.81345      265.60643     -5443.9803      960.18531      0.99696118
    299000  -304.52251      56.579431     -361.10194      301.28931     -2609.1093      960.18531      0.99696118
    300000  -305.10845      56.834819     -361.94326      302.64927     -1473.1134      960.18531      0.99696118
    301000  -321.01242      55.508161     -376.52058      295.58473     -2240.1979      960.18531      0.99696118
    302000  -309.24994      56.556104     -365.80605      301.1651      -2075.1319      960.18531      0.99696118
    303000  -317.38998      57.870652     -375.26063      308.16515      1182.8567      960.18531      0.99696118
    304000  -316.51779      56.788723     -373.30651      302.4038      -2897.6318      960.18531      0.99696118
    305000  -329.75412      51.18734      -380.94146      272.57606      2843.6575      960.18531      0.99696118
    306000  -301.88575      66.993733     -368.87948      356.74618      75.544495      960.18531      0.99696118
    307000  -308.60194      56.345009     -364.94695      300.041       -219.50368      960.18531      0.99696118
    308000  -329.88074      50.228717     -380.10945      267.47133     -3201.944       960.18531      0.99696118
    309000  -309.23756      59.97411      -369.21167      319.36621     -1159.9181      960.18531      0.99696118
    310000  -318.18904      50.19963      -368.38867      267.31644     -2214.7233      960.18531      0.99696118
    311000  -326.89157      58.274433     -385.166        310.31531     -2928.8635      960.18531      0.99696118
    312000  -329.58863      47.534259     -377.12289      253.12315      1650.0757      960.18531      0.99696118
    313000  -327.97955      45.808803     -373.78835      243.93498      670.47644      960.18531      0.99696118
    314000  -314.46283      54.744701     -369.20753      291.51925      4857.3565      960.18531      0.99696118
    315000  -325.78516      52.811538     -378.5967       281.22503      855.08889      960.18531      0.99696118
    316000  -300.3683       66.372055     -366.74035      353.4357       2655.9289      960.18531      0.99696118
    317000  -320.11588      53.30601      -373.42189      283.85812     -3057.8645      960.18531      0.99696118
    318000  -308.44212      66.825546     -375.26767      355.85057     -1483.2157      960.18531      0.99696118
    319000  -321.32821      52.048771     -373.37699      277.16324      555.41355      960.18531      0.99696118
    320000  -313.16598      60.228253     -373.39423      320.71953      460.38354      960.18531      0.99696118
    321000  -316.77674      48.111505     -364.88824      256.19703      113.60359      960.18531      0.99696118
    322000  -326.57354      54.288165     -380.8617       289.08816      1899.2061      960.18531      0.99696118
    323000  -301.97443      61.356243     -363.33068      326.72616     -2095.9016      960.18531      0.99696118
    324000  -322.4044       51.830573     -374.23498      276.00132      2047.8185      960.18531      0.99696118
    325000  -305.56465      56.806804     -362.37146      302.50009     -3854.9398      960.18531      0.99696118
    326000  -316.55143      50.709059     -367.26049      270.02918     -132.50933      960.18531      0.99696118
    327000  -306.03129      57.593523     -363.62481      306.68942      1769.3796      960.18531      0.99696118
    328000  -322.78583      54.579642     -377.36547      290.6403      -383.38677      960.18531      0.99696118
    329000  -298.94009      55.648781     -354.58887      296.33354      1570.2638      960.18531      0.99696118
    330000  -325.85827      59.337908     -385.19618      315.97839      1602.5704      960.18531      0.99696118
    331000  -307.41216      60.008514     -367.42068      319.54941     -3104.5334      960.18531      0.99696118
    332000  -308.09821      68.64245      -376.74066      365.5257       3407.714       960.18531      0.99696118
    333000  -307.03612      58.475154     -365.51127      311.38416      5561.2353      960.18531      0.99696118
    334000  -291.33084      75.55753      -366.88837      402.34898     -93.134527      960.18531      0.99696118
    335000  -310.4294       50.884787     -361.31418      270.96495     -2506.804       960.18531      0.99696118
    336000  -322.46247      55.184267     -377.64674      293.85997      5167.4224      960.18531      0.99696118
    337000  -312.08748      48.661116     -360.74859      259.12375     -1354.349       960.18531      0.99696118
    338000  -318.2566       55.267822     -373.52442      294.3049      -299.67014      960.18531      0.99696118
    339000  -315.16426      50.94506      -366.10932      271.2859      -484.70818      960.18531      0.99696118
    340000  -307.41656      56.084357     -363.50092      298.65301     -984.51684      960.18531      0.99696118
    341000  -318.64223      53.596849     -372.23908      285.40686     -3828.2832      960.18531      0.99696118
    342000  -320.85133      57.505328     -378.35665      306.21978     -2137.0693      960.18531      0.99696118
    343000  -305.02884      59.993095     -365.02193      319.4673       3496.6158      960.18531      0.99696118
    344000  -303.35186      64.040891     -367.39275      341.02209     -723.31418      960.18531      0.99696118
    345000  -325.8484       52.51591      -378.36431      279.65079     -1049.3269      960.18531      0.99696118
    346000  -312.31962      46.133157     -358.45278      245.66219     -1664.203       960.18531      0.99696118
    347000  -321.65291      49.502587     -371.1555       263.60463      1496.1171      960.18531      0.99696118
    348000  -322.51133      46.733146     -369.24447      248.85717      996.79161      960.18531      0.99696118
    349000  -309.80608      58.094506     -367.90058      309.35719     -1593.7036      960.18531      0.99696118
    350000  -304.15216      52.236565     -356.38872      278.16326      381.6242       960.18531      0.99696118
    351000  -310.56613      59.877054     -370.44318      318.84938     -468.81558      960.18531      0.99696118
    352000  -324.16012      54.07485      -378.23497      287.95225     -634.06407      960.18531      0.99696118
    353000  -321.63751      50.354725     -371.99223      268.14233     -1733.7251      960.18531      0.99696118
    354000  -300.95843      48.894072     -349.8525       260.36425     -2778.2688      960.18531      0.99696118
    355000  -329.81256      49.297977     -379.11054      262.51507      1213.5548      960.18531      0.99696118
    356000  -316.4898       62.920284     -379.41008      335.05478      4201.9948      960.18531      0.99696118
    357000  -331.61152      51.830238     -383.44176      275.99954     -810.30405      960.18531      0.99696118
    358000  -299.80895      59.712895     -359.52184      317.97522      2548.5351      960.18531      0.99696118
    359000  -323.7223       47.409457     -371.13175      252.45858      4077.1295      960.18531      0.99696118
    360000  -313.6087       53.650377     -367.25908      285.6919      -22.3319        960.18531      0.99696118
    361000  -322.9235       54.783475     -377.70697      291.72572     -578.8969       960.18531      0.99696118
    362000  -327.48307      46.866512     -374.34958      249.56736     -2735.0911      960.18531      0.99696118
    363000  -297.2362       66.778839     -364.01504      355.60185     -908.13019      960.18531      0.99696118
    364000  -310.32016      52.496713     -362.81687      279.54856     -3726.0877      960.18531      0.99696118
    365000  -319.86871      51.638153     -371.50686      274.97667     -1529.2816      960.18531      0.99696118
    366000  -314.52475      56.397395     -370.92214      300.31996     -577.46094      960.18531      0.99696118
    367000  -306.84296      50.941661     -357.78462      271.2678      -25.429609      960.18531      0.99696118
    368000  -291.95375      66.208339     -358.16209      352.5639       409.92342      960.18531      0.99696118
    369000  -322.13942      50.846391     -372.98581      270.76049      1892.2777      960.18531      0.99696118
    370000  -303.55918      54.874011     -358.43319      292.20783     -3106.7976      960.18531      0.99696118
    371000  -299.8792       59.059908     -358.93911      314.49802     -1200.7342      960.18531      0.99696118
    372000  -306.23058      61.897473     -368.12805      329.60825     -2435.9515      960.18531      0.99696118
    373000  -298.8381       62.781464     -361.61956      334.31556     -945.42761      960.18531      0.99696118
    374000  -317.5022       60.076702     -377.5789       319.91252     -1430.6439      960.18531      0.99696118
    375000  -319.49024      47.843991     -367.33423      254.7725      -2251.2563      960.18531      0.99696118
    376000  -316.68831      52.706613     -369.39493      280.66629     -1941.4201      960.18531      0.99696118
    377000  -329.547        44.355313     -373.90231      236.19505      858.26823      960.18531      0.99696118
    378000  -319.11563      55.409394     -374.52503      295.05878     -2927.5186      960.18531      0.99696118
    379000  -320.08014      49.511146     -369.59129      263.65021      871.83882      960.18531      0.99696118
    380000  -330.18963      42.54957      -372.7392       226.57935      625.64681      960.18531      0.99696118
    381000  -321.44299      44.407369     -365.85036      236.47225      2563.8377      960.18531      0.99696118
    382000  -321.75911      49.607702     -371.36681      264.16438     -1634.8168      960.18531      0.99696118
    383000  -328.1798       49.206987     -377.38679      262.03055     -2014.5058      960.18531      0.99696118
    384000  -319.78029      55.622375     -375.40266      296.19292      1570.3998      960.18531      0.99696118
    385000  -303.79027      57.288719     -361.07899      305.06632      4564.9794      960.18531      0.99696118
    386000  -321.37833      57.018577     -378.39691      303.62779      499.90528      960.18531      0.99696118
    387000  -300.7063       66.853719     -367.56001      356.00059     -1515.362       960.18531      0.99696118
    388000  -303.17231      58.983833     -362.15614      314.09292      3874.322       960.18531      0.99696118
    389000  -315.30502      55.481417     -370.78643      295.44231     -1563.6205      960.18531      0.99696118
    390000  -312.10015      52.440196     -364.54035      279.2476       1367.8812      960.18531      0.99696118
    391000  -306.54199      62.004553     -368.54654      330.17845     -1843.5749      960.18531      0.99696118
    392000  -325.36473      55.262076     -380.6268       294.27431      222.36464      960.18531      0.99696118
    393000  -313.03155      56.455478     -369.48703      300.62925     -2230.0261      960.18531      0.99696118
    394000  -295.9121       65.29779      -361.20989      347.71517     -563.45264      960.18531      0.99696118
    395000  -303.7356       59.934827     -363.67043      319.15702      710.31574      960.18531      0.99696118
    396000  -325.68353      52.392368     -378.0759       278.99292      4281.3125      960.18531      0.99696118
    397000  -325.98642      54.40237      -380.38879      289.69631      685.00673      960.18531      0.99696118
    398000  -319.47842      53.182754     -372.66117      283.20177     -2909.5873      960.18531      0.99696118
    399000  -315.64908      55.957965     -371.60705      297.97996     -275.29901      960.18531      0.99696118
    400000  -312.23698      54.594228     -366.8312       290.71797      2084.009       960.18531      0.99696118
    401000  -319.72261      57.883889     -377.6065       308.23564     -1758.9427      960.18531      0.99696118
    402000  -299.88955      62.425476     -362.31502      332.4199       1602.2914      960.18531      0.99696118
    403000  -312.58565      51.307298     -363.89295      273.21484     -4725.8539      960.18531      0.99696118
    404000  -302.13287      65.805292     -367.93816      350.41765      2324.9624      960.18531      0.99696118
    405000  -303.16867      51.999223     -355.1679       276.89939      1712.6286      960.18531      0.99696118
    406000  -320.79902      44.139224     -364.93824      235.04436      333.09384      960.18531      0.99696118
    407000  -305.94691      62.16176      -368.10866      331.01559      922.95844      960.18531      0.99696118
    408000  -326.74621      54.110526     -380.85674      288.14223      1719.8055      960.18531      0.99696118
    409000  -324.86222      51.578537     -376.44075      274.65921      1099.9941      960.18531      0.99696118
    410000  -325.54359      51.99404      -377.53763      276.87179      2026.1996      960.18531      0.99696118
    411000  -309.16268      59.483363     -368.64604      316.75294     -543.80152      960.18531      0.99696118
    412000  -308.67997      54.519001     -363.19897      290.31738      960.38092      960.18531      0.99696118
    413000  -320.34615      45.717338     -366.06349      243.44793     -3056.3943      960.18531      0.99696118
    414000  -320.51961      66.726975     -387.24659      355.32567     -2009.9799      960.18531      0.99696118
    415000  -331.74193      63.956133     -395.69806      340.57075     -1776.6096      960.18531      0.99696118
    416000  -306.95174      56.096084     -363.04782      298.71546     -980.15416      960.18531      0.99696118
    417000  -311.79764      68.32942      -380.12706      363.8588       484.45747      960.18531      0.99696118
    418000  -314.74464      45.276582     -360.02122      241.10087     -2308.3269      960.18531      0.99696118
    419000  -318.02168      47.604531     -365.62621      253.49736     -1911.9689      960.18531      0.99696118
    420000  -326.13816      44.532592     -370.67075      237.13908     -1974.7992      960.18531      0.99696118
    421000  -305.56366      68.303041     -373.8667       363.71833     -2684.6025      960.18531      0.99696118
    422000  -311.64043      57.067629     -368.70806      303.889        25.017391      960.18531      0.99696118
    423000  -302.5822       56.941128     -359.52333      303.21537      1606.0389      960.18531      0.99696118
    424000  -328.1224       39.750962     -367.87336      211.67657      796.88675      960.18531      0.99696118
    425000  -320.57195      55.180681     -375.75263      293.84087     -960.90828      960.18531      0.99696118
    426000  -325.04713      50.901127     -375.94826      271.05195     -511.04176      960.18531      0.99696118
    427000  -315.64935      50.131049     -365.7804       266.95124     -3403.1752      960.18531      0.99696118
    428000  -308.34651      59.380351     -367.72686      316.2044      -1508.8018      960.18531      0.99696118
    429000  -301.41891      58.343771     -359.76268      310.68454      838.09594      960.18531      0.99696118
    430000  -313.70714      52.121274     -365.82841      277.54932      3000.3338      960.18531      0.99696118
    431000  -308.2941       55.937196     -364.2313       297.86937     -3750.6796      960.18531      0.99696118
    432000  -303.18714      59.487229     -362.67436      316.77353      5003.6051      960.18531      0.99696118
    433000  -293.0687       59.596279     -352.66498      317.35423     -1541.0307      960.18531      0.99696118
    434000  -296.9109       60.325613     -357.23651      321.23798     -4306.822       960.18531      0.99696118
    435000  -313.15626      52.956869     -366.11312      281.99892     -4257.5114      960.18531      0.99696118
    436000  -298.7572       55.743595     -354.5008       296.83843     -2703.5749      960.18531      0.99696118
    437000  -298.4188       58.315919     -356.73472      310.53623     -560.80935      960.18531      0.99696118
    438000  -313.90792      57.341947     -371.24987      305.34976     -1111.9685      960.18531      0.99696118
    439000  -318.89916      63.40441      -382.30357      337.63279      1866.4404      960.18531      0.99696118
    440000  -318.55231      56.574459     -375.12677      301.26284      802.32072      960.18531      0.99696118
    441000  -323.36738      55.717623     -379.08501      296.70013     -2141.3235      960.18531      0.99696118
    442000  -306.39907      56.956642     -363.35571      303.29799     -1504.9829      960.18531      0.99696118
    443000  -318.53806      53.686909     -372.22496      285.88643      2763.3581      960.18531      0.99696118
    444000  -322.69581      45.333312     -368.02912      241.40296     -1240.8052      960.18531      0.99696118
    445000  -314.45414      54.158437     -368.61258      288.39735      238.03782      960.18531      0.99696118
    446000  -321.96423      49.445053     -371.40928      263.29826     -3111.0644      960.18531      0.99696118
    447000  -325.7939       57.821912     -383.61581      307.9056       2141.9792      960.18531      0.99696118
    448000  -304.97323      59.734069     -364.7073       318.08797      2808.6504      960.18531      0.99696118
    449000  -309.79132      68.054307     -377.84563      362.39381     -3825.1612      960.18531      0.99696118
    450000  -321.56495      52.597009     -374.16196      280.08264      53.592858      960.18531      0.99696118
    451000  -320.94689      59.793059     -380.73995      318.4021       3055.1692      960.18531      0.99696118
    452000  -298.30671      56.176755     -354.48347      299.14503      1327.2569      960.18531      0.99696118
    453000  -309.97021      55.562448     -365.53266      295.87381      315.32085      960.18531      0.99696118
    454000  -323.29157      40.166683     -363.45825      213.89031     -5522.2385      960.18531      0.99696118
    455000  -323.12762      45.100127     -368.22775      240.16124     -1106.2466      960.18531      0.99696118
    456000  -303.05637      61.045756     -364.10213      325.07279      327.60942      960.18531      0.99696118
    457000  -322.29581      50.370088     -372.6659       268.22414      4518.4575      960.18531      0.99696118
    458000  -313.55469      49.066849     -362.62154      261.2843       442.56765      960.18531      0.99696118
    459000  -321.3989       56.139983     -377.53888      298.94922     -1241.7775      960.18531      0.99696118
    460000  -340.58758      46.316105     -386.90368      246.6364      -1855.9409      960.18531      0.99696118
    461000  -315.87639      50.014279     -365.89067      266.32943      2143.9232      960.18531      0.99696118
    462000  -325.02525      57.236895     -382.26214      304.79035     -4415.7369      960.18531      0.99696118
    463000  -312.07888      59.45422      -371.5331       316.59776     -778.7926       960.18531      0.99696118
    464000  -297.12324      59.097055     -356.2203       314.69583     -286.37675      960.18531      0.99696118
    465000  -321.67643      53.632764     -375.30919      285.59811     -2959.9508      960.18531      0.99696118
    466000  -331.60402      50.543052     -382.14708      269.14518     -2179.6131      960.18531      0.99696118
    467000  -326.28001      56.094208     -382.37422      298.70546     -3170.8806      960.18531      0.99696118
    468000  -323.66463      46.043295     -369.70793      245.18367      3183.1953      960.18531      0.99696118
    469000  -309.60313      47.834456     -357.43759      254.72172     -589.43703      960.18531      0.99696118
    470000  -317.3055       50.198346     -367.50385      267.3096       439.99265      960.18531      0.99696118
    471000  -304.45855      54.079833     -358.53838      287.97878      1235.8985      960.18531      0.99696118
    472000  -308.32794      60.174789     -368.50273      320.43484      2414.196       960.18531      0.99696118
    473000  -304.05932      62.580049     -366.63937      333.24301      430.24638      960.18531      0.99696118
    474000  -307.0072       56.311858     -363.31905      299.86447      1160.8795      960.18531      0.99696118
    475000  -312.20233      56.461735     -368.66407      300.66257     -2154.4753      960.18531      0.99696118
    476000  -319.15361      55.1842       -374.33781      293.85961     -2446.4759      960.18531      0.99696118
    477000  -307.92404      50.229097     -358.15314      267.47335      6083.7883      960.18531      0.99696118
    478000  -298.78881      57.173068     -355.96188      304.45047      815.55275      960.18531      0.99696118
    479000  -318.90472      56.385243     -375.28997      300.25525      1221.5042      960.18531      0.99696118
    480000  -294.01366      52.499057     -346.51272      279.56104      1575.9918      960.18531      0.99696118
    481000  -324.84224      40.943895     -365.78613      218.02902      4804.6775      960.18531      0.99696118
    482000  -311.42112      49.152442     -360.57356      261.74009     -1887.2274      960.18531      0.99696118
    483000  -293.42538      59.205239     -352.63062      315.27192     -1957.0017      960.18531      0.99696118
    484000  -312.49792      59.1696       -371.66752      315.08214     -1133.2507      960.18531      0.99696118
    485000  -318.79547      54.774927     -373.5704       291.6802      -2019.1483      960.18531      0.99696118
    486000  -300.18053      59.368548     -359.54907      316.14155     -1018.9343      960.18531      0.99696118
    487000  -308.46308      62.464093     -370.92718      332.62553      2192.6909      960.18531      0.99696118
    488000  -309.72597      62.816558     -372.54252      334.50244      2208.6457      960.18531      0.99696118
    489000  -316.58171      56.909609     -373.49132      303.04753      2290.6813      960.18531      0.99696118
    490000  -324.34293      45.890836     -370.23377      244.37182      92.433222      960.18531      0.99696118
    491000  -320.06675      57.745203     -377.81195      307.49713     -97.404187      960.18531      0.99696118
    492000  -314.82373      58.247723     -373.07145      310.17308      920.42718      960.18531      0.99696118
    493000  -309.61466      57.67792      -367.29258      307.13884     -661.9471       960.18531      0.99696118
    494000  -310.00173      60.296038     -370.29777      321.0805      -954.67503      960.18531      0.99696118
    495000  -317.51298      55.264775     -372.77775      294.28868     -1986.3089      960.18531      0.99696118
    496000  -320.32288      58.166293     -378.48918      309.73946      3504.2242      960.18531      0.99696118
    497000  -323.38142      55.182437     -378.56386      293.85022     -1640.6518      960.18531      0.99696118
    498000  -307.77585      67.30429      -375.08014      358.39991     -446.85493      960.18531      0.99696118
    499000  -304.1059       52.72768      -356.83358      280.77848     -1670.8705      960.18531      0.99696118
    500000  -320.76642      52.479159     -373.24558      279.45508     -2508.4082      960.18531      0.99696118
    501000  -322.998        51.606416     -374.60441      274.80767      162.66985      960.18531      0.99696118
    502000  -319.93419      56.329105     -376.26329      299.95631      4886.2798      960.18531      0.99696118
    503000  -298.29629      56.288706     -354.585        299.74118      2144.3774      960.18531      0.99696118
    504000  -311.57908      47.238617     -358.8177       251.54884      2288.1036      960.18531      0.99696118
    505000  -316.41158      55.335561     -371.74714      294.66562     -414.05863      960.18531      0.99696118
    506000  -310.86582      53.364667     -364.23049      284.17047     -374.08817      960.18531      0.99696118
    507000  -317.75676      52.290056     -370.04682      278.4481      -2538.2936      960.18531      0.99696118
    508000  -313.12553      58.242997     -371.36853      310.14791     -1216.5808      960.18531      0.99696118
    509000  -329.45592      56.024938     -385.48085      298.3366       695.76225      960.18531      0.99696118
    510000  -321.6858       57.809654     -379.49546      307.84033      434.87168      960.18531      0.99696118
    511000  -319.44841      53.703579     -373.15199      285.9752      -4440.8745      960.18531      0.99696118
    512000  -300.84908      62.15795      -363.00703      330.9953      -2210.1328      960.18531      0.99696118
    513000  -309.1652       60.25772      -369.42292      320.87645      2974.9296      960.18531      0.99696118
    514000  -322.3448       54.184295     -376.5291       288.53505     -2863.6907      960.18531      0.99696118
    515000  -311.26855      50.979916     -362.24847      271.47151     -2137.6803      960.18531      0.99696118
    516000  -285.76395      62.473115     -348.23706      332.67358      3689.0897      960.18531      0.99696118
    517000  -316.72187      48.491058     -365.21293      258.21817     -202.99507      960.18531      0.99696118
    518000  -306.11451      59.568245     -365.68275      317.20495     -1191.841       960.18531      0.99696118
    519000  -299.35672      60.340213     -359.69693      321.31573      486.39267      960.18531      0.99696118
    520000  -302.52242      58.438092     -360.96051      311.18681      1658.9081      960.18531      0.99696118
    521000  -322.38582      46.894201     -369.28002      249.7148       658.02339      960.18531      0.99696118
    522000  -305.96731      64.789224     -370.75653      345.00701      1425.2152      960.18531      0.99696118
    523000  -320.17205      57.181348     -377.35339      304.49456     -4001.1074      960.18531      0.99696118
    524000  -317.57374      59.461538     -377.03528      316.63672     -2211.5046      960.18531      0.99696118
    525000  -327.10522      52.838191     -379.94341      281.36696     -3038.2853      960.18531      0.99696118
    526000  -313.6833       53.229738     -366.91303      283.45197      1485.0601      960.18531      0.99696118
    527000  -325.99108      47.871481     -373.86256      254.91889     -667.12574      960.18531      0.99696118
    528000  -299.7058       56.575653     -356.28146      301.2692       2534.255       960.18531      0.99696118
    529000  -313.84111      59.278357     -373.11947      315.66127      1337.3743      960.18531      0.99696118
    530000  -327.55981      57.912446     -385.47226      308.3877      -3169.9921      960.18531      0.99696118
    531000  -312.98704      60.796244     -373.78329      323.74413     -2652.5683      960.18531      0.99696118
    532000  -318.91011      54.684169     -373.59427      291.19691     -1624.585       960.18531      0.99696118
    533000  -298.81089      63.870121     -362.68102      340.11273     -596.76327      960.18531      0.99696118
    534000  -312.06284      55.279237     -367.34208      294.36569     -9.4578207      960.18531      0.99696118
    535000  -290.26343      61.968414     -352.23185      329.98601     -160.99194      960.18531      0.99696118
    536000  -322.79063      51.49302      -374.28365      274.20383      371.30875      960.18531      0.99696118
    537000  -319.75182      53.784411     -373.53623      286.40564     -3062.166       960.18531      0.99696118
    538000  -294.47761      61.103915     -355.58152      325.38249     -192.01594      960.18531      0.99696118
    539000  -284.73043      47.276064     -332.00649      251.74825      3337.0105      960.18531      0.99696118
    540000  -301.20362      58.408585     -359.61221      311.02968      1200.2556      960.18531      0.99696118
    541000  -321.1129       50.80495      -371.91785      270.53981     -3109.358       960.18531      0.99696118
    542000  -314.41936      54.76825      -369.18761      291.64465     -298.73309      960.18531      0.99696118
    543000  -316.03936      60.446614     -376.48597      321.88232      1082.1577      960.18531      0.99696118
    544000  -321.15866      49.131367     -370.29003      261.62786     -2516.8274      960.18531      0.99696118
    545000  -296.36088      56.855588     -353.21647      302.75987      1912.7768      960.18531      0.99696118
    546000  -320.41877      52.551029     -372.9698       279.83779     -764.17068      960.18531      0.99696118
    547000  -324.56865      56.235305     -380.80395      299.45682      1088.0451      960.18531      0.99696118
    548000  -311.19645      61.234372     -372.43082      326.07719     -563.86248      960.18531      0.99696118
    549000  -307.88846      55.804502     -363.69296      297.16276     -1565.6173      960.18531      0.99696118
    550000  -317.80321      57.52714      -375.33035      306.33593     -1191.2141      960.18531      0.99696118
    551000  -316.9357       53.121599     -370.0573       282.87612      819.16368      960.18531      0.99696118
    552000  -329.80426      52.875696     -382.67995      281.56667     -82.721893      960.18531      0.99696118
    553000  -311.63252      61.437774     -373.0703       327.16032      770.7805       960.18531      0.99696118
    554000  -319.41077      49.300819     -368.71159      262.53021     -1027.1569      960.18531      0.99696118
    555000  -323.70333      53.019357     -376.72269      282.33168      2031.4017      960.18531      0.99696118
    556000  -309.31531      52.165401     -361.48071      277.7843       980.2288       960.18531      0.99696118
    557000  -323.07261      55.646374     -378.71898      296.32072     -2767.1709      960.18531      0.99696118
    558000  -307.21672      66.361266     -373.57799      353.37825     -890.46651      960.18531      0.99696118
    559000  -317.96892      54.437617     -372.40654      289.884        4096.0865      960.18531      0.99696118
    560000  -305.87583      60.171444     -366.04727      320.41702      2340.7529      960.18531      0.99696118
    561000  -319.47762      50.189261     -369.66689      267.26122     -17.084101      960.18531      0.99696118
    562000  -307.26176      63.351773     -370.61353      337.35249     -2359.2585      960.18531      0.99696118
    563000  -282.4531       71.386716     -353.83982      380.13911     -1552.5556      960.18531      0.99696118
    564000  -310.53629      51.272393     -361.80868      273.02897     -1710.6692      960.18531      0.99696118
    565000  -324.45552      54.664645     -379.12017      291.09294     -1610.4301      960.18531      0.99696118
    566000  -325.24331      50.910889     -376.1542       271.10394      506.45242      960.18531      0.99696118
    567000  -319.95152      47.101546     -367.05306      250.81893      2297.2545      960.18531      0.99696118
    568000  -297.47081      50.957044     -348.42785      271.34972      1786.5162      960.18531      0.99696118
    569000  -291.76708      62.018323     -353.7854       330.25178      4634.8583      960.18531      0.99696118
    570000  -308.13626      60.801385     -368.93764      323.7715       2095.6162      960.18531      0.99696118
    571000  -309.81087      53.965127     -363.776        287.36796      1656.0043      960.18531      0.99696118
    572000  -323.80878      53.729937     -377.53871      286.11556     -1880.9885      960.18531      0.99696118
    573000  -311.57358      59.153031     -370.72662      314.9939       3287.3017      960.18531      0.99696118
    574000  -319.5023       60.119205     -379.62151      320.13885      1398.3173      960.18531      0.99696118
    575000  -318.38989      45.216131     -363.60602      240.77896     -4802.7852      960.18531      0.99696118
    576000  -294.29948      61.768535     -356.06801      328.92164      4179.0274      960.18531      0.99696118
    577000  -307.24271      56.952491     -364.1952       303.27588     -1903           960.18531      0.99696118
    578000  -304.91039      55.777293     -360.68768      297.01787     -1289.9882      960.18531      0.99696118
    579000  -308.47436      59.151761     -367.62612      314.98714      1590.1087      960.18531      0.99696118
    580000  -306.65574      54.929994     -361.58573      292.50595     -728.66731      960.18531      0.99696118
    581000  -323.70645      45.697314     -369.40376      243.3413       684.17373      960.18531      0.99696118
    582000  -306.98766      55.804577     -362.79223      297.16316      1986.7877      960.18531      0.99696118
    583000  -307.87046      54.989628     -362.86009      292.8235      -151.05775      960.18531      0.99696118
    584000  -328.92383      46.767181     -375.69101      249.03842     -1350.1757      960.18531      0.99696118
    585000  -302.38343      55.05618      -357.43961      293.1779      -1765.0131      960.18531      0.99696118
    586000  -323.72861      55.411574     -379.14019      295.07039      2024.0293      960.18531      0.99696118
    587000  -329.15731      61.622863     -390.78017      328.14593      1130.806       960.18531      0.99696118
    588000  -299.54899      50.854124     -350.40311      270.80166     -29.835884      960.18531      0.99696118
    589000  -312.7094       53.826548     -366.53595      286.63002      498.06839      960.18531      0.99696118
    590000  -311.53911      62.611475     -374.15059      333.41035     -2326.0457      960.18531      0.99696118
    591000  -303.78846      63.982917     -367.77137      340.71338      2703.8846      960.18531      0.99696118
    592000  -303.58558      58.798053     -362.38364      313.10362      76.35399       960.18531      0.99696118
    593000  -310.70606      56.597375     -367.30344      301.38486      2486.9686      960.18531      0.99696118
    594000  -323.78859      57.207022     -380.99561      304.63128     -829.75697      960.18531      0.99696118
    595000  -320.83938      57.660689     -378.50007      307.04708      1461.5663      960.18531      0.99696118
    596000  -315.24667      53.636572     -368.88324      285.61839      2184.0556      960.18531      0.99696118
    597000  -327.20392      47.359958     -374.56388      252.19499     -2892.0097      960.18531      0.99696118
    598000  -328.44242      58.644053     -387.08647      312.28356     -1407.7418      960.18531      0.99696118
    599000  -340.99031      44.869552     -385.85987      238.93341     -5318.3621      960.18531      0.99696118
    600000  -318.46083      53.645496     -372.10632      285.66591     -1922.2331      960.18531      0.99696118
    601000  -294.5527       64.506528     -359.05923      343.50164     -193.21809      960.18531      0.99696118
    602000  -311.25951      52.884494     -364.14401      281.61352      554.63291      960.18531      0.99696118
    603000  -322.86492      50.072879     -372.93779      266.64148      685.13122      960.18531      0.99696118
    604000  -319.17266      54.40783      -373.58049      289.72539     -726.51258      960.18531      0.99696118
    605000  -302.44565      58.460764     -360.90641      311.30754     -697.69433      960.18531      0.99696118
    606000  -322.97796      57.319159     -380.29711      305.22841     -1258.958       960.18531      0.99696118
    607000  -311.35076      54.101715     -365.45247      288.0953      -162.53651      960.18531      0.99696118
    608000  -306.50438      50.872205     -357.37659      270.89794     -1102.5872      960.18531      0.99696118
    609000  -325.98432      47.152039     -373.13636      251.08781     -865.56417      960.18531      0.99696118
    610000  -311.31718      58.002964     -369.32014      308.86972     -2008.3657      960.18531      0.99696118
    611000  -322.43968      58.688819     -381.12849      312.52195     -2283.4488      960.18531      0.99696118
    612000  -311.91056      63.985643     -375.8962       340.72789     -1590.6106      960.18531      0.99696118
    613000  -316.90192      58.177441     -375.07936      309.79882     -2907.7843      960.18531      0.99696118
    614000  -310.92914      60.631155     -371.5603       322.86501     -2996.8027      960.18531      0.99696118
    615000  -294.88124      62.32018      -357.20142      331.85919      1403.5067      960.18531      0.99696118
    616000  -313.95954      61.331375     -375.29092      326.59373      1894.7955      960.18531      0.99696118
    617000  -314.86369      54.78346      -369.64715      291.72565     -1397.765       960.18531      0.99696118
    618000  -303.27955      65.807796     -369.08735      350.43098     -740.82819      960.18531      0.99696118
    619000  -326.68751      61.503661     -388.19117      327.51117      3375.674       960.18531      0.99696118
    620000  -325.13623      52.403065     -377.53929      279.04988      882.21856      960.18531      0.99696118
    621000  -317.29433      55.214233     -372.50856      294.01954     -83.868156      960.18531      0.99696118
    622000  -306.87233      62.221922     -369.09426      331.33596      25.016199      960.18531      0.99696118
    623000  -298.1041       57.241689     -355.34579      304.81588     -2452.7776      960.18531      0.99696118
    624000  -325.61841      57.697528     -383.31593      307.24325     -2126.0314      960.18531      0.99696118
    625000  -316.04252      51.517919     -367.56044      274.33642     -1394.8755      960.18531      0.99696118
    626000  -314.41787      61.362819     -375.78069      326.76118     -3398.812       960.18531      0.99696118
    627000  -325.18158      56.703784     -381.88537      301.9515       4593.5283      960.18531      0.99696118
    628000  -302.93151      65.849732     -368.78125      350.65429      390.70173      960.18531      0.99696118
    629000  -329.44429      50.72698      -380.17127      270.12461      243.24696      960.18531      0.99696118
    630000  -327.4052       55.213987     -382.61919      294.01823      1989.6994      960.18531      0.99696118
    631000  -323.1005       48.251228     -371.35173      256.94106      493.74512      960.18531      0.99696118
    632000  -316.91916      55.582702     -372.50186      295.98166     -290.44339      960.18531      0.99696118
    633000  -327.45269      60.045218     -387.4979       319.74486     -3605.7415      960.18531      0.99696118
    634000  -319.06447      63.441215     -382.50568      337.82878     -3119.5386      960.18531      0.99696118
    635000  -319.17679      54.149492     -373.32628      288.34972      3429.6581      960.18531      0.99696118
    636000  -313.69854      50.412509     -364.11105      268.45003      1126.3492      960.18531      0.99696118
    637000  -321.06934      55.919478     -376.98882      297.77502     -290.26352      960.18531      0.99696118
    638000  -311.31332      56.090887     -367.4042       298.68778      105.2834       960.18531      0.99696118
    639000  -322.31251      52.039484     -374.352        277.11378     -791.18957      960.18531      0.99696118
    640000  -321.05254      57.318821     -378.37137      305.22661      1810.0923      960.18531      0.99696118
    641000  -316.51013      54.383606     -370.89374      289.59639      2749.9746      960.18531      0.99696118
    642000  -301.10072      54.806108     -355.90682      291.84625      1364.7328      960.18531      0.99696118
    643000  -314.21159      53.610546     -367.82213      285.4798      -1616.9942      960.18531      0.99696118
    644000  -329.91737      53.878855     -383.79623      286.90856      400.23032      960.18531      0.99696118
    645000  -319.20477      54.763052     -373.96782      291.61697     -2787.382       960.18531      0.99696118
    646000  -314.22331      62.268636     -376.49194      331.58471     -1103.3329      960.18531      0.99696118
    647000  -319.66489      60.359385     -380.02427      321.41782      1900.1276      960.18531      0.99696118
    648000  -322.12137      57.049698     -379.17107      303.79352     -1970.4853      960.18531      0.99696118
    649000  -318.67691      59.72919      -378.4061       318.06199     -904.54469      960.18531      0.99696118
    650000  -321.32087      53.420839     -374.74171      284.4696      -1585.3785      960.18531      0.99696118
[...]
   2842000  -317.02403      62.619343     -379.64338      333.45225     -1511.7865      960.18531      0.99696118
   2843000  -329.27771      51.576183     -380.85389      274.64668      1687.2351      960.18531      0.99696118
   2844000  -313.70669      57.982535     -371.68923      308.76094      2814.3211      960.18531      0.99696118
   2845000  -314.71925      55.78017      -370.49942      297.03319     -1579.5975      960.18531      0.99696118
   2846000  -324.71717      51.178602     -375.89577      272.52953     -2479.7134      960.18531      0.99696118
   2847000  -313.18281      53.468073     -366.65088      284.72112     -5501.4023      960.18531      0.99696118
   2848000  -300.63825      62.925201     -363.56345      335.08097      1527.2207      960.18531      0.99696118
   2849000  -322.3337       55.628176     -377.96188      296.22381     -4772.5969      960.18531      0.99696118
   2850000  -304.81024      63.137749     -367.94799      336.2128      -449.81735      960.18531      0.99696118
   2851000  -320.90018      51.026993     -371.92717      271.7222       2534.741       960.18531      0.99696118
   2852000  -297.53881      60.865671     -358.40448      324.11383     -2125.2495      960.18531      0.99696118
   2853000  -318.1787       50.57265      -368.75135      269.30279      1367.1183      960.18531      0.99696118
   2854000  -307.31472      56.563669     -363.87839      301.20538      220.38787      960.18531      0.99696118
   2855000  -301.7638       59.869527     -361.63333      318.8093       607.5858       960.18531      0.99696118
   2856000  -302.68591      59.146261     -361.83217      314.95786     -3612.3815      960.18531      0.99696118
   2857000  -320.90187      60.019084     -380.92095      319.60569     -1897.8495      960.18531      0.99696118
   2858000  -315.01409      60.178985     -375.19307      320.45718     -1786.9262      960.18531      0.99696118
   2859000  -326.97674      47.044761     -374.0215       250.51654     -2056.598       960.18531      0.99696118
   2860000  -299.13655      67.617974     -366.75453      360.0703       62.998841      960.18531      0.99696118
   2861000  -331.01112      53.216601     -384.22772      283.38202      2344.7378      960.18531      0.99696118
   2862000  -321.97693      54.799348     -376.77628      291.81025      2838.5366      960.18531      0.99696118
   2863000  -339.69843      50.397625     -390.09606      268.37077     -1547.2397      960.18531      0.99696118
   2864000  -331.1991       59.174696     -390.3738       315.10927     -2385.705       960.18531      0.99696118
   2865000  -327.54556      54.271959     -381.81751      289.00186     -2310.2296      960.18531      0.99696118
   2866000  -320.36615      60.148942     -380.51509      320.2972      -1482.2608      960.18531      0.99696118
   2867000  -325.22851      47.801362     -373.02987      254.5455       1777.8028      960.18531      0.99696118
   2868000  -322.99598      59.247943     -382.24393      315.49932     -528.70155      960.18531      0.99696118
   2869000  -315.13063      64.627129     -379.75776      344.14385      2256.4695      960.18531      0.99696118
   2870000  -300.99947      56.760092     -357.75956      302.25134      736.52738      960.18531      0.99696118
   2871000  -319.76091      52.109751     -371.87066      277.48796     -3425.1599      960.18531      0.99696118
   2872000  -297.17339      55.442015     -352.61541      295.23249      1225.9729      960.18531      0.99696118
   2873000  -321.08119      50.441711     -371.5229       268.60554     -5105.9701      960.18531      0.99696118
   2874000  -331.12608      41.943036     -373.06911      223.34952     -3335.7632      960.18531      0.99696118
   2875000  -309.90461      64.221886     -374.12649      341.9859      -2948.8134      960.18531      0.99696118
   2876000  -318.85997      50.03378      -368.89376      266.43328      1809.4428      960.18531      0.99696118
   2877000  -315.96309      56.257962     -372.22106      299.57747      187.59214      960.18531      0.99696118
   2878000  -333.53299      54.369093     -387.90209      289.51911     -1158.7722      960.18531      0.99696118
   2879000  -305.56528      62.05414      -367.61942      330.44251     -3829.3235      960.18531      0.99696118
   2880000  -308.43918      53.339034     -361.77821      284.03397      1379.8932      960.18531      0.99696118
   2881000  -322.2417       47.494108     -369.73581      252.90935     -2002.6517      960.18531      0.99696118
   2882000  -296.71404      56.498071     -353.21211      300.85607      319.07728      960.18531      0.99696118
   2883000  -319.42654      51.517784     -370.94432      274.3357      -4829.3042      960.18531      0.99696118
   2884000  -311.82164      54.355647     -366.17729      289.44751     -1787.2444      960.18531      0.99696118
   2885000  -322.55348      54.587299     -377.14078      290.68107     -1953.2874      960.18531      0.99696118
   2886000  -294.19778      65.283785     -359.48157      347.64059     -2288.2622      960.18531      0.99696118
   2887000  -307.09992      64.819233     -371.91915      345.16681      4444.782       960.18531      0.99696118
   2888000  -313.54077      52.297029     -365.83779      278.48523     -540.19462      960.18531      0.99696118
   2889000  -308.59325      64.612269     -373.20552      344.06472      5541.9332      960.18531      0.99696118
   2890000  -310.44906      55.419523     -365.86858      295.11272     -201.85793      960.18531      0.99696118
   2891000  -312.87606      48.694888     -361.57095      259.30358      2688.8401      960.18531      0.99696118
   2892000  -315.79746      63.744512     -379.54197      339.44385     -256.81522      960.18531      0.99696118
   2893000  -318.79387      57.405002     -376.19887      305.68553     -836.25222      960.18531      0.99696118
   2894000  -332.22614      57.633457     -389.85959      306.90207      1600.0937      960.18531      0.99696118
   2895000  -310.17529      61.737984     -371.91327      328.75896      837.45981      960.18531      0.99696118
   2896000  -301.83115      67.251854     -369.08301      358.12069     -693.40689      960.18531      0.99696118
   2897000  -301.13959      53.811959     -354.95155      286.55233      786.33489      960.18531      0.99696118
   2898000  -324.3277       54.487539     -378.81524      290.14984      76.430853      960.18531      0.99696118
   2899000  -324.10179      49.86571      -373.9675       265.53829      1496.3157      960.18531      0.99696118
   2900000  -335.40053      43.318198     -378.71873      230.67235     -4559.1973      960.18531      0.99696118
   2901000  -311.04816      61.136089     -372.18425      325.55383      662.8465       960.18531      0.99696118
   2902000  -327.51259      54.249596     -381.76218      288.88278      544.19002      960.18531      0.99696118
   2903000  -306.73918      55.704787     -362.44396      296.63177     -848.50732      960.18531      0.99696118
   2904000  -305.44363      54.304564     -359.7482       289.17549     -201.57184      960.18531      0.99696118
   2905000  -313.33743      54.723532     -368.06096      291.40653     -701.13364      960.18531      0.99696118
   2906000  -319.11973      58.708285     -377.82801      312.6256      -3391.7559      960.18531      0.99696118
   2907000  -308.00733      61.867929     -369.87526      329.45092      4521.6419      960.18531      0.99696118
   2908000  -307.81379      50.964772     -358.77856      271.39087     -1267.6119      960.18531      0.99696118
   2909000  -303.97686      57.557383     -361.53424      306.49697     -4111.6839      960.18531      0.99696118
   2910000  -315.52158      53.513415     -369.035        284.96257      2166.9422      960.18531      0.99696118
   2911000  -308.14852      58.939565     -367.08809      313.85719      3692.6342      960.18531      0.99696118
   2912000  -308.2496       60.002764     -368.25237      319.51879      389.71599      960.18531      0.99696118
   2913000  -316.65033      60.281461     -376.93179      321.00287      799.21897      960.18531      0.99696118
   2914000  -310.71704      57.209031     -367.92607      304.64197      4004.8988      960.18531      0.99696118
   2915000  -310.22087      58.708787     -368.92966      312.62827      4003.4095      960.18531      0.99696118
   2916000  -291.22384      60.617248     -351.84109      322.79096      4289.8197      960.18531      0.99696118
   2917000  -322.11141      47.379997     -369.49141      252.3017       906.78157      960.18531      0.99696118
   2918000  -312.34395      60.274818     -372.61877      320.9675       2433.777       960.18531      0.99696118
   2919000  -310.36713      53.163368     -363.5305       283.09854     -1325.3193      960.18531      0.99696118
   2920000  -301.13075      70.670593     -371.80134      376.3257      -3280.1641      960.18531      0.99696118
   2921000  -319.80816      60.575515     -380.38368      322.56873      721.4983       960.18531      0.99696118
   2922000  -307.20043      66.325252     -373.52568      353.18647      593.00657      960.18531      0.99696118
   2923000  -299.94785      58.108701     -358.05655      309.43278      2367.6829      960.18531      0.99696118
   2924000  -330.38235      57.036738     -387.41908      303.7245      -2919.2773      960.18531      0.99696118
   2925000  -327.99874      53.008939     -381.00768      282.2762      -78.011832      960.18531      0.99696118
   2926000  -317.37961      50.259785     -367.6394       267.63677     -925.44673      960.18531      0.99696118
   2927000  -317.44708      53.88232      -371.3294       286.92701     -1609.1746      960.18531      0.99696118
   2928000  -316.82806      49.14062      -365.96868      261.67714      999.11782      960.18531      0.99696118
   2929000  -312.01294      50.835699     -362.84864      270.70355      264.00629      960.18531      0.99696118
   2930000  -306.76859      61.415077     -368.18367      327.03945      76.823434      960.18531      0.99696118
   2931000  -324.92802      52.757509     -377.68553      280.93732     -416.47141      960.18531      0.99696118
   2932000  -324.28437      55.843212     -380.12758      297.36889     -1631.0523      960.18531      0.99696118
   2933000  -301.67022      60.964029     -362.63425      324.63759     -561.44547      960.18531      0.99696118
   2934000  -315.4046       58.578724     -373.98332      311.93568     -1085.3594      960.18531      0.99696118
   2935000  -316.10688      57.7442       -373.85108      307.49179      1228.0218      960.18531      0.99696118
   2936000  -311.34716      56.325207     -367.67237      299.93555      2468.2949      960.18531      0.99696118
   2937000  -324.31554      46.50799      -370.82353      247.65821      1838.3136      960.18531      0.99696118
   2938000  -309.79461      54.900901     -364.69551      292.35103     -132.79157      960.18531      0.99696118
   2939000  -312.53947      53.989248     -366.52871      287.49641      1853.2887      960.18531      0.99696118
   2940000  -320.70862      58.41173      -379.12035      311.04643      889.1897       960.18531      0.99696118
   2941000  -300.15328      58.9758       -359.12908      314.05014      691.07229      960.18531      0.99696118
   2942000  -311.83953      65.541466     -377.38099      349.01276     -330.1091       960.18531      0.99696118
   2943000  -305.90105      50.491984     -356.39303      268.87324     -87.930047      960.18531      0.99696118
   2944000  -318.73139      59.164843     -377.89623      315.0568       1118.9318      960.18531      0.99696118
   2945000  -314.29598      49.341843     -363.63782      262.74866     -387.41872      960.18531      0.99696118
   2946000  -297.04673      61.594872     -358.6416       327.99687     -2546.1135      960.18531      0.99696118
   2947000  -329.79577      46.056593     -375.85237      245.25448      2508.9606      960.18531      0.99696118
   2948000  -317.45272      58.214103     -375.66682      309.99405      3251.0148      960.18531      0.99696118
   2949000  -317.61733      51.133818     -368.75115      272.29105      5071.2554      960.18531      0.99696118
   2950000  -317.00506      54.14123      -371.14629      288.30572     -763.05569      960.18531      0.99696118
   2951000  -332.04646      50.910714     -382.95717      271.10301     -1626.026       960.18531      0.99696118
   2952000  -312.34253      50.245288     -362.58782      267.55957     -601.92752      960.18531      0.99696118
   2953000  -316.34722      48.70414      -365.05136      259.35285      1081.8331      960.18531      0.99696118
   2954000  -311.27867      54.589063     -365.86773      290.69047      3612.141       960.18531      0.99696118
   2955000  -308.1157       57.176696     -365.29239      304.46979     -1457.8429      960.18531      0.99696118
   2956000  -322.28752      47.188037     -369.47556      251.2795      -355.93151      960.18531      0.99696118
   2957000  -308.36857      53.551242     -361.91981      285.164        2542.4764      960.18531      0.99696118
   2958000  -319.38698      50.999964     -370.38695      271.57827      1302.3134      960.18531      0.99696118
   2959000  -309.38045      57.123197     -366.50364      304.1849      -168.43054      960.18531      0.99696118
   2960000  -310.90201      54.653718     -365.55572      291.03476     -1147.984       960.18531      0.99696118
   2961000  -319.36915      56.974052     -376.3432       303.3907       48.909924      960.18531      0.99696118
   2962000  -323.34514      49.879679     -373.22482      265.61268      1435.3527      960.18531      0.99696118
   2963000  -322.47543      46.051677     -368.52711      245.2283      -2320.2363      960.18531      0.99696118
   2964000  -308.08902      50.861516     -358.95054      270.84103     -1817.4634      960.18531      0.99696118
   2965000  -303.18937      60.521605     -363.71098      322.28165     -862.55778      960.18531      0.99696118
   2966000  -315.47307      57.584191     -373.05726      306.63973      2288.8251      960.18531      0.99696118
   2967000  -338.22821      47.297022     -385.52523      251.85986     -1438.5862      960.18531      0.99696118
   2968000  -318.0312       53.937656     -371.96886      287.22168      1407.3625      960.18531      0.99696118
   2969000  -312.71808      58.37017      -371.08825      310.82512     -1465.1708      960.18531      0.99696118
   2970000  -292.80245      59.460817     -352.26327      316.63289     -1857.9456      960.18531      0.99696118
   2971000  -308.351        65.043068     -373.39407      346.35875      2940.1653      960.18531      0.99696118
   2972000  -322.79381      45.863541     -368.65735      244.22647      399.94518      960.18531      0.99696118
   2973000  -294.61137      63.092137     -357.70351      335.96991     -2231.1765      960.18531      0.99696118
   2974000  -324.25593      50.719664     -374.97559      270.08565      5593.7767      960.18531      0.99696118
   2975000  -303.69145      71.020763     -374.71221      378.19038     -191.39147      960.18531      0.99696118
   2976000  -316.23391      57.369638     -373.60354      305.49722     -68.921856      960.18531      0.99696118
   2977000  -314.80104      57.783561     -372.5846       307.70139      556.63904      960.18531      0.99696118
   2978000  -305.42312      64.536321     -369.95944      343.66029     -233.17649      960.18531      0.99696118
   2979000  -310.32982      57.990986     -368.3208       308.80594      6097.0598      960.18531      0.99696118
   2980000  -322.23485      51.171057     -373.40591      272.48935      2049.3489      960.18531      0.99696118
   2981000  -308.28962      51.24078      -359.5304       272.86063     -2066.5932      960.18531      0.99696118
   2982000  -301.88199      68.915122     -370.79711      366.9777      -5059.6481      960.18531      0.99696118
   2983000  -329.33623      46.83191      -376.16814      249.3831       809.47352      960.18531      0.99696118
   2984000  -311.17393      52.965142     -364.13907      282.04298     -1995.9531      960.18531      0.99696118
   2985000  -321.18242      46.823992     -368.00641      249.34094     -2025.0187      960.18531      0.99696118
   2986000  -310.19718      58.960292     -369.15747      313.96756     -3826.7345      960.18531      0.99696118
   2987000  -313.97292      52.276507     -366.24943      278.37595      621.80308      960.18531      0.99696118
   2988000  -332.65996      42.518111     -375.17807      226.41183      102.1474       960.18531      0.99696118
   2989000  -334.07091      56.45448      -390.52539      300.62394     -4530.2928      960.18531      0.99696118
   2990000  -327.17612      50.032576     -377.20869      266.42686     -1874.9575      960.18531      0.99696118
   2991000  -303.90649      59.965368     -363.87186      319.31965      2465.6866      960.18531      0.99696118
   2992000  -313.32652      50.622938     -363.94946      269.57058      4176.7967      960.18531      0.99696118
   2993000  -322.55707      52.103101     -374.66018      277.45255     -2168.4994      960.18531      0.99696118
   2994000  -318.53484      51.545335     -370.08018      274.48241      1240.6315      960.18531      0.99696118
   2995000  -310.49975      61.979663     -372.47941      330.04591     -1350.885       960.18531      0.99696118
   2996000  -322.36513      50.887017     -373.25215      270.97682      1301.6126      960.18531      0.99696118
   2997000  -318.38554      48.619176     -367.00471      258.90041     -1303.9926      960.18531      0.99696118
   2998000  -310.03611      59.428764     -369.46488      316.46221      193.91472      960.18531      0.99696118
   2999000  -327.42018      51.484088     -378.90426      274.15626     -1954.8692      960.18531      0.99696118
   3000000  -301.95172      55.422427     -357.37415      295.12819      1061.9017      960.18531      0.99696118
Loop time of 865.356 on 1 procs for 2000000 steps with 96 atoms

Performance: 199.687 ns/day, 0.120 hours/ns, 2311.188 timesteps/s
99.7% CPU use with 1 MPI tasks x 1 OpenMP threads

MPI task timing breakdown:
Section |  min time  |  avg time  |  max time  |%varavg| %total
---------------------------------------------------------------
Pair    | 677.83     | 677.83     | 677.83     |   0.0 | 78.33
Bond    | 0.10777    | 0.10777    | 0.10777    |   0.0 |  0.01
Kspace  | 116.68     | 116.68     | 116.68     |   0.0 | 13.48
Neigh   | 32.468     | 32.468     | 32.468     |   0.0 |  3.75
Comm    | 22.996     | 22.996     | 22.996     |   0.0 |  2.66
Output  | 0.26252    | 0.26252    | 0.26252    |   0.0 |  0.03
Modify  | 11.701     | 11.701     | 11.701     |   0.0 |  1.35
Other   |            | 3.309      |            |       |  0.38

Nlocal:             96 ave          96 max          96 min
Histogram: 1 0 0 0 0 0 0 0 0 0
Nghost:           3889 ave        3889 max        3889 min
Histogram: 1 0 0 0 0 0 0 0 0 0
Neighs:          34687 ave       34687 max       34687 min
Histogram: 1 0 0 0 0 0 0 0 0 0

Total # of neighbors = 34687
Ave neighs/atom = 361.32292
Ave special neighs/atom = 2
Neighbor list builds = 45910
Dangerous builds = 0

# write data file
write_data data.after_prod.lmp
System init for write_data ...
PPPM initialization ...
  using 12-bit tables for long-range coulomb (src/kspace.cpp:342)
  G vector (1/distance) = 0.30847861
  grid = 9 9 9
  stencil order = 5
  estimated absolute RMS force accuracy = 0.0027675926
  estimated relative force accuracy = 8.334523e-06
  using double precision FFTW3
  3d grid and FFT values/proc = 4096 729
Generated 1 of 1 mixed pair_coeff terms from geometric mixing rule

# clean up
undump dPROD
unfix fTHERMO
unfix fMOM
unfix fSHAKE
Total wall time: 0:21:38
