LAMMPS (23 Jun 2022 - Update 4)
  using 1 OpenMP thread(s) per MPI task
# created by fftool

# System settings
units real
boundary p p p  # Periodic boundary conditions

# definition of atoms, bonds, angles
atom_style full
bond_style harmonic
angle_style harmonic

# definition of pair potentials
special_bonds lj/coul 0.0 0.0 0.5
pair_style lj/cut/coul/long 10.0 10.0
pair_modify mix geometric tail yes
kspace_style pppm 1.0e-5

# read data file
read_data data.lmp
Reading data file ...
  orthogonal box = (0 0 0) to (9.865483 9.865483 9.865483)
  1 by 1 by 1 MPI processor grid
  reading atoms ...
  96 atoms
  scanning bonds ...
  1 = max bonds/atom
  scanning angles ...
  1 = max angles/atom
  reading bonds ...
  64 bonds
  reading angles ...
  32 angles
Finding 1-2 1-3 1-4 neighbors ...
  special bond factors lj:    0        0        0.5
  special bond factors coul:  0        0        0.5
     2 = max # of 1-2 neighbors
     1 = max # of 1-3 neighbors
     1 = max # of 1-4 neighbors
     2 = max # of special neighbors
  special bonds CPU = 0.000 seconds
  read_data CPU = 0.004 seconds

# definition of LJ parameters
pair_coeff    1    1     0.000000     0.000000  # Hw Hw
pair_coeff    2    2     0.162985     3.178841  # Ow-Ow

############################################

# remove energy hotspots
minimize 1.0e-4 1.0e-6 100 1000
WARNING: Using 'neigh_modify every 1 delay 0 check yes' setting during minimization (src/min.cpp:187)
PPPM initialization ...
  using 12-bit tables for long-range coulomb (src/kspace.cpp:342)
  G vector (1/distance) = 0.30847861
  grid = 9 9 9
  stencil order = 5
  estimated absolute RMS force accuracy = 0.0027675926
  estimated relative force accuracy = 8.334523e-06
  using double precision FFTW3
  3d grid and FFT values/proc = 4096 729
Generated 1 of 1 mixed pair_coeff terms from geometric mixing rule
Neighbor list info ...
  update every 1 steps, delay 0 steps, check yes
  max neighbors/atom: 2000, page size: 100000
  master list distance cutoff = 12
  ghost atom cutoff = 12
  binsize = 6, bins = 2 2 2
  1 neighbor lists, perpetual/occasional/extra = 1 0 0
  (1) pair lj/cut/coul/long, perpetual
      attributes: half, newton on
      pair build: half/bin/newton
      stencil: half/bin/3d
      bin: standard
Per MPI rank memory allocation (min/avg/max) = 8.322 | 8.322 | 8.322 Mbytes
   Step          Temp          E_pair         E_mol          TotEng         Press
         0   0              187284         5.8484392e-09  187284         53571288
       100   0             -481.80845      40.120405     -441.68804     -6067.9973
Loop time of 0.107051 on 1 procs for 100 steps with 96 atoms

99.6% CPU use with 1 MPI tasks x 1 OpenMP threads

Minimization stats:
  Stopping criterion = max iterations
  Energy initial, next-to-last, final =
      187284.001036664   -440.75206500737  -441.688040944219
  Force two-norm initial, final = 2841906.3 23.675553
  Force max component initial, final = 1856157.9 5.1999748
  Final line search alpha, max atom move = 0.012788846 0.066501678
  Iterations, force evaluations = 100 175

MPI task timing breakdown:
Section |  min time  |  avg time  |  max time  |%varavg| %total
---------------------------------------------------------------
Pair    | 0.090583   | 0.090583   | 0.090583   |   0.0 | 84.62
Bond    | 0.00034138 | 0.00034138 | 0.00034138 |   0.0 |  0.32
Kspace  | 0.010592   | 0.010592   | 0.010592   |   0.0 |  9.89
Neigh   | 0.0028511  | 0.0028511  | 0.0028511  |   0.0 |  2.66
Comm    | 0.0020903  | 0.0020903  | 0.0020903  |   0.0 |  1.95
Output  | 1.1967e-05 | 1.1967e-05 | 1.1967e-05 |   0.0 |  0.01
Modify  | 0          | 0          | 0          |   0.0 |  0.00
Other   |            | 0.0005808  |            |       |  0.54

Nlocal:             96 ave          96 max          96 min
Histogram: 1 0 0 0 0 0 0 0 0 0
Nghost:           3817 ave        3817 max        3817 min
Histogram: 1 0 0 0 0 0 0 0 0 0
Neighs:          34773 ave       34773 max       34773 min
Histogram: 1 0 0 0 0 0 0 0 0 0

Total # of neighbors = 34773
Ave neighs/atom = 362.21875
Ave special neighs/atom = 2
Neighbor list builds = 4
Dangerous builds = 0
reset_timestep 0

# constrain water bonds and angles
fix fSHAKE all shake 0.0001 20 0 b 1 a 1
       0 = # of size 2 clusters
       0 = # of size 3 clusters
       0 = # of size 4 clusters
      32 = # of frozen angles
  find clusters CPU = 0.000 seconds

# remove Center of Mass movement every 100 steps
fix fMOM all momentum 100 linear 1 1 1

# define the neighbor list
neighbor 2.0 bin

# IMPORTANT: timestep and temperature and pressure
timestep 1.0
variable vTK equal 298.15
variable vPBAR equal 1.0

# randomize velocities
velocity all create ${vTK} 89375
velocity all create 298.15 89375

# thermostat (solving the ODE)
fix fTHERMO all nvt temp ${vTK} ${vTK} 100
fix fTHERMO all nvt temp 298.15 ${vTK} 100
fix fTHERMO all nvt temp 298.15 298.15 100

# print settings
thermo 1000
thermo_style custom step etotal ke pe temp press vol density
# trajectory output
dump dEQUI all custom 1000 equi.lammpstrj id element xu yu zu
dump_modify dEQUI element H O sort id

# equilibration
# 1 ns
run 1000000
PPPM initialization ...
  using 12-bit tables for long-range coulomb (src/kspace.cpp:342)
  G vector (1/distance) = 0.30847861
  grid = 9 9 9
  stencil order = 5
  estimated absolute RMS force accuracy = 0.0027675926
  estimated relative force accuracy = 8.334523e-06
  using double precision FFTW3
  3d grid and FFT values/proc = 4096 729
Generated 1 of 1 mixed pair_coeff terms from geometric mixing rule
Per MPI rank memory allocation (min/avg/max) = 9.33 | 9.33 | 9.33 Mbytes
   Step         TotEng         KinEng         PotEng          Temp          Press          Volume        Density
         0  -425.81855      55.989897     -481.80845      298.15         3901.9389      960.18531      0.99696118
      1000  -308.9517       50.853901     -359.8056       270.80048     -1282.2892      960.18531      0.99696118
      2000  -316.41448      60.544755     -376.95924      322.40493     -783.68281      960.18531      0.99696118
      3000  -325.40355      55.025832     -380.42938      293.01629     -1302.8053      960.18531      0.99696118
      4000  -309.87423      59.513731     -369.38796      316.91466     -3490.6718      960.18531      0.99696118
      5000  -321.43167      49.134079     -370.56575      261.64231     -1586.6565      960.18531      0.99696118
      6000  -341.423        49.228747     -390.65175      262.14642      270.39407      960.18531      0.99696118
      7000  -327.82872      57.67318      -385.5019       307.1136      -1222.495       960.18531      0.99696118
      8000  -325.27383      62.0602       -387.33403      330.47478      3371.4273      960.18531      0.99696118
      9000  -315.62306      57.43879      -373.06185      305.86546      1716.2213      960.18531      0.99696118
     10000  -306.13071      55.775591     -361.9063       297.00881      1918.7882      960.18531      0.99696118
     11000  -309.21566      62.509076     -371.72473      332.86507      1302.4694      960.18531      0.99696118
     12000  -317.22302      51.702146     -368.92517      275.31744      1280.9157      960.18531      0.99696118
     13000  -323.47856      52.536804     -376.01536      279.76205     -3615.8733      960.18531      0.99696118
     14000  -300.73343      64.240422     -364.97385      342.08461     -87.689011      960.18531      0.99696118
     15000  -308.45095      59.412678     -367.86363      316.37654      463.55207      960.18531      0.99696118
     16000  -309.49652      61.245551     -370.74207      326.13672      55.677401      960.18531      0.99696118
     17000  -326.35669      49.51683      -375.87352      263.68048     -343.39734      960.18531      0.99696118
     18000  -317.96287      47.040767     -365.00364      250.49528      6081.1699      960.18531      0.99696118
     19000  -310.19934      62.331701     -372.53104      331.92054     -1020.3235      960.18531      0.99696118
     20000  -319.66415      55.480812     -375.14496      295.43909      3506.3674      960.18531      0.99696118
     21000  -320.83886      52.548259     -373.38712      279.82305      300.72553      960.18531      0.99696118
     22000  -301.83229      53.405631     -355.23792      284.38861     -2702.9202      960.18531      0.99696118
     23000  -309.9767       61.394038     -371.37074      326.92742      597.48062      960.18531      0.99696118
     24000  -319.54261      58.123131     -377.66574      309.50962     -1542.4168      960.18531      0.99696118
     25000  -315.47304      69.857677     -385.33072      371.99687     -1327.5865      960.18531      0.99696118
     26000  -308.12489      59.348751     -367.47364      316.03613      2686.6134      960.18531      0.99696118
     27000  -320.24238      61.417673     -381.66006      327.05328     -3505.1064      960.18531      0.99696118
     28000  -312.83416      52.469834     -365.30399      279.40543     -2878.4601      960.18531      0.99696118
     29000  -305.87025      55.410719     -361.28097      295.06584      37.910471      960.18531      0.99696118
     30000  -311.88095      55.319986     -367.20093      294.58268     -3969.5287      960.18531      0.99696118
     31000  -317.87802      51.160026     -369.03804      272.43061     -1668.6509      960.18531      0.99696118
     32000  -327.95159      51.354813     -379.3064       273.46787      692.6226       960.18531      0.99696118
     33000  -326.43163      54.99371      -381.42534      292.84524      791.43655      960.18531      0.99696118
     34000  -310.22885      58.430016     -368.65887      311.1438       3415.0973      960.18531      0.99696118
     35000  -324.44859      55.130589     -379.57918      293.57413     -2037.6021      960.18531      0.99696118
     36000  -312.16238      57.670372     -369.83275      307.09864     -92.418551      960.18531      0.99696118
     37000  -316.64401      66.711687     -383.35569      355.24426      1813.011       960.18531      0.99696118
     38000  -298.20598      64.385755     -362.59173      342.85851     -2773.9147      960.18531      0.99696118
     39000  -314.4002       49.175223     -363.57542      261.8614       1219.4758      960.18531      0.99696118
     40000  -324.58622      55.690729     -380.27695      296.55691     -1241.318       960.18531      0.99696118
     41000  -322.98557      48.865982     -371.85156      260.21467      22.777661      960.18531      0.99696118
     42000  -307.46402      59.697706     -367.16172      317.89434      421.55856      960.18531      0.99696118
     43000  -327.08382      53.40053      -380.48435      284.36145      2902.8809      960.18531      0.99696118
     44000  -315.35615      49.442823     -364.79897      263.28639     -2826.1903      960.18531      0.99696118
     45000  -310.0079       64.330543     -374.33844      342.56451      1305.8183      960.18531      0.99696118
     46000  -315.60871      55.235542     -370.84425      294.13301      909.05961      960.18531      0.99696118
     47000  -325.21601      47.488109     -372.70412      252.87741      2042.4342      960.18531      0.99696118
     48000  -315.42027      54.195398     -369.61567      288.59417     -2221.6524      960.18531      0.99696118
     49000  -307.42548      56.21313      -363.63861      299.33874     -315.3206       960.18531      0.99696118
     50000  -331.45865      56.804634     -388.26328      302.48853      892.15536      960.18531      0.99696118
     51000  -309.62415      60.871371     -370.49552      324.14418     -2241.228       960.18531      0.99696118
     52000  -316.72778      52.342368     -369.07015      278.72666      2884.0312      960.18531      0.99696118
     53000  -303.57376      56.422416     -359.99617      300.45319     -2158.9955      960.18531      0.99696118
     54000  -316.46475      50.439714     -366.90446      268.5949      -3379.0131      960.18531      0.99696118
     55000  -299.11181      54.699405     -353.81122      291.27805      573.66383      960.18531      0.99696118
     56000  -307.41358      65.900939     -373.31452      350.92697      1991.0743      960.18531      0.99696118
     57000  -312.42668      57.686248     -370.11293      307.18318      2843.6995      960.18531      0.99696118
     58000  -313.97466      58.927302     -372.90196      313.79188      2628.3788      960.18531      0.99696118
     59000  -323.36438      57.009385     -380.37377      303.57884     -379.64341      960.18531      0.99696118
     60000  -306.22677      65.712415     -371.93918      349.92307     -359.22558      960.18531      0.99696118
     61000  -313.21193      52.217524     -365.42946      278.06186     -698.78822      960.18531      0.99696118
     62000  -333.83609      45.265101     -379.10119      241.03973     -2581.3775      960.18531      0.99696118
     63000  -316.1487       57.403163     -373.55187      305.67574      550.09977      960.18531      0.99696118
     64000  -312.53893      50.75786      -363.29679      270.28905      1515.2459      960.18531      0.99696118
     65000  -320.56391      56.118922     -376.68283      298.83707     -851.8775       960.18531      0.99696118
     66000  -301.71748      60.513179     -362.23066      322.23679      914.82193      960.18531      0.99696118
     67000  -294.60363      67.087041     -361.69067      357.24305      685.59813      960.18531      0.99696118
     68000  -305.40468      57.257115     -362.66179      304.89803      300.58367      960.18531      0.99696118
     69000  -310.28654      58.068867     -368.35541      309.22066      2499.6347      960.18531      0.99696118
     70000  -332.3236       52.729498     -385.05309      280.78816     -3149.3601      960.18531      0.99696118
     71000  -311.45818      58.112851     -369.57103      309.45488     -1037.2261      960.18531      0.99696118
     72000  -330.70698      53.719564     -384.42654      286.06032      2568.7306      960.18531      0.99696118
     73000  -316.27085      57.880739     -374.15159      308.21887      3606.2432      960.18531      0.99696118
     74000  -325.14992      57.172116     -382.32204      304.4454       2578.1697      960.18531      0.99696118
     75000  -308.85258      58.190428     -367.04301      309.86798     -881.69472      960.18531      0.99696118
     76000  -314.35711      51.168749     -365.52586      272.47706      1571.3014      960.18531      0.99696118
     77000  -305.70026      67.920336     -373.62059      361.6804       3125.3145      960.18531      0.99696118
     78000  -320.31898      57.174721     -377.4937       304.45927      1500.4749      960.18531      0.99696118
     79000  -307.53195      52.858284     -360.39024      281.47395     -1875.7304      960.18531      0.99696118
     80000  -303.18601      59.428666     -362.61468      316.46168     -2145.0605      960.18531      0.99696118
     81000  -290.40931      67.170745     -357.58005      357.68878      2826.2611      960.18531      0.99696118
     82000  -307.01268      52.810903     -359.82359      281.22164      3309.9922      960.18531      0.99696118
     83000  -295.85076      62.836665     -358.68743      334.60951      3695.4313      960.18531      0.99696118
     84000  -313.41615      57.703253     -371.1194       307.27374     -435.92174      960.18531      0.99696118
     85000  -328.77299      53.155739     -381.92873      283.05792     -1333.249       960.18531      0.99696118
     86000  -317.45435      60.055051     -377.5094       319.79722      4840.974       960.18531      0.99696118
     87000  -320.7962       53.497263     -374.29346      284.87656      2402.1251      960.18531      0.99696118
     88000  -294.23929      64.497078     -358.73637      343.45132      59.832684      960.18531      0.99696118
     89000  -339.68444      35.907168     -375.59161      191.20811     -911.70789      960.18531      0.99696118
     90000  -321.81165      55.803281     -377.61494      297.15626     -413.54364      960.18531      0.99696118
     91000  -326.06407      51.983197     -378.04727      276.81405      1561.4148      960.18531      0.99696118
     92000  -327.46937      57.324388     -384.79376      305.25626      1339.8044      960.18531      0.99696118
     93000  -321.86953      56.448858     -378.31838      300.594       -1528.1309      960.18531      0.99696118
     94000  -321.5337       53.970791     -375.50449      287.39813      2259.0455      960.18531      0.99696118
     95000  -312.1351       63.121323     -375.25642      336.12533      866.6715       960.18531      0.99696118
     96000  -325.40378      50.722339     -376.12612      270.0999       164.55629      960.18531      0.99696118
     97000  -327.74517      50.278692     -378.02386      267.73745      800.80127      960.18531      0.99696118
     98000  -314.50348      63.416995     -377.92048      337.6998       2683.3631      960.18531      0.99696118
     99000  -321.09609      60.064436     -381.16053      319.8472      -368.05984      960.18531      0.99696118
    100000  -314.77814      62.506654     -377.28479      332.85218     -727.31039      960.18531      0.99696118
    101000  -317.60554      53.943147     -371.54869      287.25092     -493.36392      960.18531      0.99696118
    102000  -316.22478      56.669834     -372.89462      301.77071      477.58705      960.18531      0.99696118
    103000  -336.56494      58.521698     -395.08663      311.63201     -4817.6556      960.18531      0.99696118
    104000  -339.22268      51.194814     -390.41749      272.61586     -274.09634      960.18531      0.99696118
    105000  -329.37713      49.781266     -379.1584       265.08862     -1610.4799      960.18531      0.99696118
    106000  -322.57645      64.060901     -386.63735      341.12865      3217.0757      960.18531      0.99696118
    107000  -338.48269      48.232311     -386.71501      256.84033      2816.1226      960.18531      0.99696118
    108000  -314.02682      62.407124     -376.43395      332.32217     -528.34648      960.18531      0.99696118
    109000  -326.22194      55.180953     -381.4029       293.84232     -1591.0059      960.18531      0.99696118
    110000  -308.2509       65.777722     -374.02862      350.27084      1518.2025      960.18531      0.99696118
    111000  -314.52988      53.73429      -368.26418      286.13874     -5405.2328      960.18531      0.99696118
    112000  -312.42815      43.3075       -355.73565      230.61538      4524.572       960.18531      0.99696118
    113000  -319.20048      52.380084     -371.58057      278.9275      -4044.2135      960.18531      0.99696118
    114000  -315.80701      53.387862     -369.19487      284.29399     -764.19571      960.18531      0.99696118
    115000  -313.34435      49.305395     -362.64975      262.55457      2163.7194      960.18531      0.99696118
    116000  -318.07324      54.192719     -372.26596      288.57991      1913.3752      960.18531      0.99696118
    117000  -325.87124      47.483448     -373.35469      252.85259      2583.6822      960.18531      0.99696118
    118000  -331.80901      51.398249     -383.20726      273.69916      1019.515       960.18531      0.99696118
    119000  -322.46182      47.677659     -370.13947      253.88677      368.40826      960.18531      0.99696118
    120000  -310.99304      53.503052     -364.49609      284.90739     -3.1395724      960.18531      0.99696118
    121000  -311.60469      60.438881     -372.04357      321.84114      131.24415      960.18531      0.99696118
    122000  -312.04728      57.908896     -369.95618      308.3688       4849.9849      960.18531      0.99696118
    123000  -293.88474      62.447742     -356.33248      332.53847      3755.2049      960.18531      0.99696118
    124000  -292.69646      67.300846     -359.99731      358.38157     -2659.9674      960.18531      0.99696118
    125000  -307.9614       59.719455     -367.68085      318.01015      697.55221      960.18531      0.99696118
    126000  -317.43043      52.750776     -370.18121      280.90146      3336.611       960.18531      0.99696118
    127000  -342.75348      44.196071     -386.94955      235.34708      2610.107       960.18531      0.99696118
    128000  -331.84025      49.331625     -381.17188      262.69425     -4677.0538      960.18531      0.99696118
    129000  -327.16932      48.140708     -375.31003      256.35254     -1621.1566      960.18531      0.99696118
    130000  -326.02667      53.419217     -379.44589      284.46095      1228.7635      960.18531      0.99696118
    131000  -317.06633      55.772818     -372.83914      296.99404      977.71305      960.18531      0.99696118
    132000  -325.8439       58.607601     -384.4515       312.08945     -3534.1204      960.18531      0.99696118
    133000  -305.21144      69.980008     -375.19145      372.6483      -1397.3152      960.18531      0.99696118
    134000  -332.2331       55.015439     -387.24854      292.96095     -1924.2709      960.18531      0.99696118
    135000  -327.48242      61.725442     -389.20786      328.69217     -2490.5772      960.18531      0.99696118
    136000  -324.6757       49.112796     -373.78849      261.52897      471.30726      960.18531      0.99696118
    137000  -321.97892      50.513541     -372.49247      268.98803     -945.44482      960.18531      0.99696118
    138000  -329.80231      50.186797     -379.98911      267.2481      -1700.6654      960.18531      0.99696118
    139000  -332.37361      50.377782     -382.75139      268.26511     -2716.828       960.18531      0.99696118
    140000  -324.93873      61.272037     -386.21077      326.27776      779.06697      960.18531      0.99696118
    141000  -334.8744       50.67199      -385.54639      269.83179      3459.3036      960.18531      0.99696118
    142000  -341.77455      46.938355     -388.71291      249.94993      4231.7606      960.18531      0.99696118
    143000  -314.89443      63.51355      -378.40798      338.21396      867.08043      960.18531      0.99696118
    144000  -319.07652      57.637231     -376.71375      306.92217      4580.8131      960.18531      0.99696118
    145000  -330.38085      47.511968     -377.89282      253.00445      2797.2079      960.18531      0.99696118
    146000  -325.70147      52.391268     -378.09274      278.98706      2443.7507      960.18531      0.99696118
    147000  -308.33725      57.05197      -365.38922      303.80561     -563.16939      960.18531      0.99696118
    148000  -321.52718      64.624009     -386.15119      344.12723      4677.7889      960.18531      0.99696118
    149000  -316.94351      65.733393     -382.6769       350.03478      2404.5622      960.18531      0.99696118
    150000  -319.83285      60.505535     -380.33839      322.19608     -2737.546       960.18531      0.99696118
    151000  -310.94203      62.581503     -373.52354      333.25075      43.791448      960.18531      0.99696118
    152000  -317.80435      47.104075     -364.90843      250.8324      -751.07226      960.18531      0.99696118
    153000  -305.61917      55.266409     -360.88558      294.29738     -1032.4144      960.18531      0.99696118
    154000  -312.14453      55.052577     -367.1971       293.15871     -1194.6273      960.18531      0.99696118
    155000  -323.8554       46.008099     -369.8635       244.99625      3779.4198      960.18531      0.99696118
    156000  -308.78735      51.901515     -360.68887      276.37909      1608.5282      960.18531      0.99696118
    157000  -297.54584      58.531883     -356.07772      311.68625     -2792.744       960.18531      0.99696118
    158000  -315.545        51.403876     -366.94887      273.72913      1058.4783      960.18531      0.99696118
    159000  -299.52943      64.100407     -363.62984      341.33902     -1753.033       960.18531      0.99696118
    160000  -319.16515      58.914771     -378.07993      313.72516     -2081.6499      960.18531      0.99696118
    161000  -315.39367      58.249466     -373.64314      310.18236      820.92638      960.18531      0.99696118
    162000  -321.25917      53.986965     -375.24614      287.48425     -465.85091      960.18531      0.99696118
    163000  -316.51167      52.405835     -368.9175       279.06463     -1359.4541      960.18531      0.99696118
    164000  -295.12503      65.344286     -360.46931      347.96276     -83.053059      960.18531      0.99696118
    165000  -315.87694      55.20403      -371.08097      293.96521     -1569.5328      960.18531      0.99696118
    166000  -322.66578      53.222519     -375.8883       283.41353     -169.08463      960.18531      0.99696118
    167000  -308.63007      48.57176      -357.20183      258.64792      985.62408      960.18531      0.99696118
    168000  -307.1216       59.263441     -366.38504      315.58185      1509.7898      960.18531      0.99696118
    169000  -324.70678      48.137754     -372.84453      256.33681      1241.1273      960.18531      0.99696118
    170000  -317.76844      58.546945     -376.31538      311.76646     -1803.1257      960.18531      0.99696118
    171000  -318.98775      56.978788     -375.96654      303.41591     -385.86145      960.18531      0.99696118
    172000  -329.7766       49.017484     -378.79409      261.02143     -2421.2391      960.18531      0.99696118
    173000  -321.50508      60.491164     -381.99624      322.11955     -1254.5462      960.18531      0.99696118
    174000  -319.92443      53.51415      -373.43859      284.96648      3754.8798      960.18531      0.99696118
    175000  -317.32237      55.799104     -373.12147      297.13402      3011.0196      960.18531      0.99696118
    176000  -321.55759      55.98993      -377.54752      298.15018     -2513.8418      960.18531      0.99696118
    177000  -302.86001      66.94069      -369.8007       356.46372      369.07259      960.18531      0.99696118
    178000  -334.06188      42.360558     -376.42244      225.57285     -608.44509      960.18531      0.99696118
    179000  -305.74748      65.834467     -371.58194      350.57301     -567.20321      960.18531      0.99696118
    180000  -337.74257      51.557067     -389.29963      274.54488      3143.5666      960.18531      0.99696118
    181000  -312.56672      65.122639     -377.68936      346.78247     -1634.4177      960.18531      0.99696118
    182000  -307.74763      57.707486     -365.45512      307.29628      193.94788      960.18531      0.99696118
    183000  -310.92822      55.116984     -366.04521      293.50168      1824.6887      960.18531      0.99696118
    184000  -310.83606      57.88668      -368.72274      308.2505       1686.3063      960.18531      0.99696118
    185000  -336.58025      44.549805     -381.13005      237.23074      2779.6621      960.18531      0.99696118
    186000  -319.17255      63.633418     -382.80597      338.85227      771.26006      960.18531      0.99696118
    187000  -333.06605      48.975182     -382.04123      260.79617      216.50692      960.18531      0.99696118
    188000  -340.85079      54.9279       -395.77869      292.4948       908.69597      960.18531      0.99696118
    189000  -330.94722      62.312531     -393.25975      331.81846      657.24392      960.18531      0.99696118
    190000  -304.51918      71.414517     -375.9337       380.28715      2957.2986      960.18531      0.99696118
    191000  -336.96292      59.630939     -396.59386      317.5388      -440.49602      960.18531      0.99696118
    192000  -320.36423      65.511911     -385.87614      348.85537      2474.6754      960.18531      0.99696118
    193000  -320.7399       51.615733     -372.35563      274.85728      267.45617      960.18531      0.99696118
    194000  -296.33754      69.35065      -365.68819      369.29692     -182.53729      960.18531      0.99696118
    195000  -329.87165      50.074882     -379.94654      266.65215      1707.8412      960.18531      0.99696118
    196000  -319.92338      57.378716     -377.3021       305.54556      1312.0081      960.18531      0.99696118
    197000  -316.81161      52.828488     -369.6401       281.31529     -460.58245      960.18531      0.99696118
    198000  -330.3412       46.034864     -376.37606      245.13878      99.965126      960.18531      0.99696118
    199000  -296.9524       57.396978     -354.34937      305.64281      1179.4727      960.18531      0.99696118
    200000  -313.39038      54.339656     -367.73004      289.36236      1950.2984      960.18531      0.99696118
    201000  -315.45134      58.346609     -373.79795      310.69965     -631.33514      960.18531      0.99696118
    202000  -312.84843      59.686014     -372.53444      317.83207      1101.7101      960.18531      0.99696118
    203000  -301.53825      63.282497     -364.82074      336.98359     -651.32619      960.18531      0.99696118
    204000  -303.10632      53.481555     -356.58787      284.79291     -1092.7832      960.18531      0.99696118
    205000  -297.26282      51.224845     -348.48767      272.77578      3876.4786      960.18531      0.99696118
    206000  -331.81756      42.613458     -374.43102      226.91955      1435.6069      960.18531      0.99696118
    207000  -294.97811      54.232702     -349.21081      288.79282     -1441.7227      960.18531      0.99696118
    208000  -297.54017      58.640061     -356.18023      312.26231      576.27994      960.18531      0.99696118
    209000  -307.81039      56.124897     -363.93529      298.86889     -932.15362      960.18531      0.99696118
    210000  -323.1342       50.899679     -374.03388      271.04425     -2655.9408      960.18531      0.99696118
    211000  -319.38377      57.807064     -377.19084      307.82654      637.77822      960.18531      0.99696118
    212000  -315.68051      54.730853     -370.41136      291.44551     -2480.179       960.18531      0.99696118
    213000  -313.99647      59.462553     -373.45902      316.64213      2051.5958      960.18531      0.99696118
    214000  -327.3941       55.263311     -382.65741      294.28089      761.11698      960.18531      0.99696118
    215000  -302.51925      52.66961      -355.18886      280.46925      4042.3889      960.18531      0.99696118
    216000  -317.81915      63.490223     -381.30937      338.08975      508.61055      960.18531      0.99696118
    217000  -311.52153      59.043713     -370.56525      314.41178     -4594.325       960.18531      0.99696118
    218000  -311.08509      46.721077     -357.80616      248.79291     -1094.8339      960.18531      0.99696118
    219000  -328.69389      47.858316     -376.5522       254.84878      3585.2213      960.18531      0.99696118
    220000  -336.45231      52.460645     -388.91296      279.3565       1654.1358      960.18531      0.99696118
    221000  -300.86192      64.036205     -364.89813      340.99714      694.93056      960.18531      0.99696118
    222000  -311.83387      63.152928     -374.9868       336.29363      7989.9718      960.18531      0.99696118
    223000  -307.50634      57.374063     -364.8804       305.52078      2085.999       960.18531      0.99696118
    224000  -301.37902      64.537743     -365.91676      343.66786     -2822.9682      960.18531      0.99696118
    225000  -300.50697      59.18286      -359.68983      315.15275     -1455.7521      960.18531      0.99696118
    226000  -315.76372      51.079636     -366.84335      272.00253     -2793.8296      960.18531      0.99696118
    227000  -301.89182      60.067679     -361.95949      319.86447      3973.2204      960.18531      0.99696118
    228000  -338.85161      49.71605      -388.56766      264.74134     -137.8164       960.18531      0.99696118
    229000  -284.47277      62.361468     -346.83424      332.07905      1360.9552      960.18531      0.99696118
    230000  -321.85421      50.644555     -372.49876      269.6857      -2478.2767      960.18531      0.99696118
    231000  -316.89469      58.041615     -374.9363       309.07554     -1412.203       960.18531      0.99696118
    232000  -322.24418      60.893646     -383.13783      324.2628       2413.609       960.18531      0.99696118
    233000  -319.86037      48.686196     -368.54656      259.2573      -1699.8576      960.18531      0.99696118
    234000  -305.42049      60.383215     -365.80371      321.54472     -1810.8043      960.18531      0.99696118
    235000  -309.43978      59.951414     -369.39119      319.24535     -3094.5037      960.18531      0.99696118
    236000  -307.67756      70.552758     -378.23032      375.69823      2588.5758      960.18531      0.99696118
    237000  -318.60691      47.925905     -366.53282      255.2087       1654.7434      960.18531      0.99696118
    238000  -330.65102      57.102541     -387.75356      304.07491      279.63722      960.18531      0.99696118
    239000  -307.03021      62.967744     -369.99796      335.30751      4692.5386      960.18531      0.99696118
    240000  -320.78221      55.741376     -376.52359      296.82661     -1892.3149      960.18531      0.99696118
    241000  -324.39165      54.33531      -378.72696      289.33922      2499.028       960.18531      0.99696118
    242000  -309.48582      55.977145     -365.46296      298.0821      -56.984368      960.18531      0.99696118
    243000  -303.44511      59.39088      -362.83599      316.26047      1228.8273      960.18531      0.99696118
    244000  -308.81538      56.583594     -365.39897      301.31148      3257.5125      960.18531      0.99696118
    245000  -317.11439      56.821689     -373.93608      302.57935      1840.7483      960.18531      0.99696118
    246000  -305.89197      56.469784     -362.36175      300.70543      13.986434      960.18531      0.99696118
    247000  -318.43265      48.742524     -367.17517      259.55725     -1165.3141      960.18531      0.99696118
    248000  -289.19337      61.201548     -350.39492      325.9024       2010.0515      960.18531      0.99696118
    249000  -320.60084      49.955927     -370.55676      266.0187      -4517.5461      960.18531      0.99696118
    250000  -309.21898      57.412684     -366.63166      305.72644      340.31232      960.18531      0.99696118
    251000  -299.37017      64.096904     -363.46707      341.32037     -1340.1164      960.18531      0.99696118
    252000  -315.68678      55.544097     -371.23088      295.77609     -651.46529      960.18531      0.99696118
    253000  -312.55364      54.190482     -366.74412      288.56799      292.40172      960.18531      0.99696118
    254000  -298.21326      63.145561     -361.35882      336.2544       5879.3907      960.18531      0.99696118
    255000  -308.10609      49.475452     -357.58154      263.46014     -1274.6048      960.18531      0.99696118
    256000  -331.08297      56.58213      -387.6651       301.30368     -181.32967      960.18531      0.99696118
    257000  -332.13921      57.356237     -389.49545      305.42586      4917.4407      960.18531      0.99696118
    258000  -319.04036      51.433688     -370.47405      273.88788     -2617.345       960.18531      0.99696118
    259000  -313.05124      55.425175     -368.47642      295.14282      356.01221      960.18531      0.99696118
    260000  -339.56527      49.58762      -389.15289      264.05744     -735.21542      960.18531      0.99696118
    261000  -315.35501      52.570058     -367.92507      279.93913     -336.14189      960.18531      0.99696118
    262000  -315.4128       58.914071     -374.32687      313.72143      1869.4465      960.18531      0.99696118
    263000  -327.46301      52.665225     -380.12823      280.4459       406.3126       960.18531      0.99696118
    264000  -314.53803      56.265699     -370.80373      299.61867      1037.1411      960.18531      0.99696118
    265000  -333.96357      43.767211     -377.73079      233.06337     -2496.8104      960.18531      0.99696118
    266000  -314.53585      59.111322     -373.64717      314.7718      -1415.8156      960.18531      0.99696118
    267000  -311.54248      50.99006      -362.53254      271.52553     -293.31246      960.18531      0.99696118
    268000  -329.8996       55.932871     -385.83247      297.84634     -4722.1325      960.18531      0.99696118
    269000  -324.16732      47.975662     -372.14298      255.47366      883.94275      960.18531      0.99696118
    270000  -319.48599      53.201444     -372.68743      283.3013      -1845.1141      960.18531      0.99696118
    271000  -308.11648      48.732505     -356.84898      259.5039       1047.3751      960.18531      0.99696118
    272000  -325.88437      44.090657     -369.97503      234.78574      48.985576      960.18531      0.99696118
    273000  -329.02613      46.509194     -375.53532      247.66461     -984.08464      960.18531      0.99696118
    274000  -325.83675      54.562431     -380.39918      290.54865     -838.80319      960.18531      0.99696118
    275000  -340.06564      55.864198     -395.92984      297.48065      1865.7264      960.18531      0.99696118
    276000  -330.51759      56.858956     -387.37655      302.7778       44.053319      960.18531      0.99696118
    277000  -345.75326      38.110959     -383.86422      202.94344     -4741.3894      960.18531      0.99696118
    278000  -311.83882      52.70374      -364.54256      280.65099      483.67643      960.18531      0.99696118
    279000  -323.31916      49.99591      -373.31507      266.23162      1162.1819      960.18531      0.99696118
    280000  -317.65849      56.516163     -374.17466      300.95241      1908.6837      960.18531      0.99696118
    281000  -304.88546      61.907219     -366.79268      329.66015      905.74243      960.18531      0.99696118
    282000  -317.94398      51.558655     -369.50264      274.55334     -159.81088      960.18531      0.99696118
    283000  -319.2016       51.997385     -371.19899      276.88961      1655.1307      960.18531      0.99696118
    284000  -340.78551      42.856515     -383.64202      228.21385      862.57114      960.18531      0.99696118
    285000  -330.53089      54.052712     -384.5836       287.83436     -16.765769      960.18531      0.99696118
    286000  -313.73031      64.392332     -378.12264      342.89354     -3490.5444      960.18531      0.99696118
    287000  -311.67372      53.656749     -365.33047      285.72583      2605.1743      960.18531      0.99696118
    288000  -323.32131      51.048353     -374.36967      271.83595      829.64644      960.18531      0.99696118
    289000  -326.33708      58.05279      -384.38987      309.13505     -371.00863      960.18531      0.99696118
    290000  -333.56586      47.897855     -381.46371      255.05933     -2806.1588      960.18531      0.99696118
    291000  -325.91284      51.051664     -376.9645       271.85358     -3399.8231      960.18531      0.99696118
    292000  -335.91457      58.073965     -393.98854      309.24781     -2435.8023      960.18531      0.99696118
    293000  -316.91446      61.592406     -378.50687      327.98374      3355.4215      960.18531      0.99696118
    294000  -308.13145      57.070375     -365.20183      303.90362      91.155115      960.18531      0.99696118
    295000  -293.83696      68.121152     -361.95812      362.74976      2540.4981      960.18531      0.99696118
    296000  -312.44379      51.055854     -363.49965      271.87589     -988.54057      960.18531      0.99696118
    297000  -298.8325       58.526234     -357.35873      311.65617     -3128.9415      960.18531      0.99696118
    298000  -316.41149      60.588448     -376.99993      322.6376       1602.679       960.18531      0.99696118
    299000  -301.2317       54.673194     -355.90489      291.13847     -712.29191      960.18531      0.99696118
    300000  -314.87403      58.24317      -373.1172       310.14883     -2562.6017      960.18531      0.99696118
    301000  -304.64024      60.696168     -365.33641      323.21121      887.89532      960.18531      0.99696118
    302000  -324.36948      44.094546     -368.46402      234.80645      3430.6724      960.18531      0.99696118
    303000  -318.94975      56.041059     -374.99081      298.42244     -2293.4199      960.18531      0.99696118
    304000  -335.06232      47.204131     -382.26645      251.3652       386.27965      960.18531      0.99696118
    305000  -322.47833      57.48011      -379.95844      306.08549      1291.4883      960.18531      0.99696118
    306000  -309.38926      53.056524     -362.44579      282.52959      651.9657       960.18531      0.99696118
    307000  -324.31146      57.700998     -382.01246      307.26173     -156.23515      960.18531      0.99696118
    308000  -316.39531      58.090845     -374.48616      309.33769     -2785.5975      960.18531      0.99696118
    309000  -331.63856      48.85578      -380.49434      260.16034     -3174.9795      960.18531      0.99696118
    310000  -306.60246      65.609341     -372.2118       349.37419      804.08418      960.18531      0.99696118
    311000  -332.26989      48.65888      -380.92877      259.11184     -2186.1805      960.18531      0.99696118
    312000  -327.8753       54.113033     -381.98834      288.15558      754.28984      960.18531      0.99696118
    313000  -315.6939       63.236886     -378.93079      336.74071     -2678.1312      960.18531      0.99696118
    314000  -328.17917      55.769728     -383.9489       296.97759     -2081.4008      960.18531      0.99696118
    315000  -317.25529      65.83966      -383.09495      350.60066      305.59107      960.18531      0.99696118
    316000  -308.28224      59.443046     -367.72529      316.53826      2451.3463      960.18531      0.99696118
    317000  -289.00952      77.135398     -366.14492      410.75123      2008.0024      960.18531      0.99696118
    318000  -318.67542      55.186097     -373.86152      293.86971     -1787.9451      960.18531      0.99696118
    319000  -306.80519      60.979747     -367.78494      324.72129     -2018.0359      960.18531      0.99696118
    320000  -311.58957      58.598029     -370.18759      312.03848     -2737.3124      960.18531      0.99696118
    321000  -326.70226      52.416565     -379.11883      279.12177      122.539        960.18531      0.99696118
    322000  -328.7285       52.283582     -381.01208      278.41363     -2179.7039      960.18531      0.99696118
    323000  -329.79609      54.168418     -383.96451      288.4505       1958.3887      960.18531      0.99696118
    324000  -304.68208      56.871174     -361.55326      302.84286      377.99618      960.18531      0.99696118
    325000  -300.05144      57.560074     -357.61152      306.5113      -964.47749      960.18531      0.99696118
    326000  -316.83892      54.115443     -370.95437      288.16841      1493.3517      960.18531      0.99696118
    327000  -331.85362      46.466827     -378.32045      247.43901     -3814.5056      960.18531      0.99696118
    328000  -314.51402      50.699521     -365.21354      269.97839     -4839.8136      960.18531      0.99696118
    329000  -317.32257      55.405933     -372.7285       295.04035     -211.73049      960.18531      0.99696118
    330000  -317.49214      62.504572     -379.99672      332.84109     -1598.2611      960.18531      0.99696118
    331000  -307.17008      66.536561     -373.70664      354.3117      -2355.531       960.18531      0.99696118
    332000  -324.66417      55.099843     -379.76401      293.41041     -887.08757      960.18531      0.99696118
    333000  -316.36305      54.795603     -371.15865      291.79031     -448.7857       960.18531      0.99696118
    334000  -328.93496      48.490367     -377.42533      258.2145       500.75386      960.18531      0.99696118
    335000  -324.08057      58.89531      -382.97588      313.62153     -985.92178      960.18531      0.99696118
    336000  -309.96334      65.740812     -375.70415      350.07429      4113.6845      960.18531      0.99696118
    337000  -324.83728      53.906252     -378.74354      287.05445      1788.7253      960.18531      0.99696118
    338000  -322.35597      54.715817     -377.07179      291.36544     -1332.5657      960.18531      0.99696118
    339000  -304.26524      61.05535      -365.32059      325.12388     -2901.7676      960.18531      0.99696118
    340000  -326.56148      46.521559     -373.08304      247.73046      1545.8954      960.18531      0.99696118
    341000  -305.36946      60.915746     -366.2852       324.38048     -4813.0359      960.18531      0.99696118
    342000  -328.46149      52.168408     -380.6299       277.80031     -112.05695      960.18531      0.99696118
    343000  -319.24163      55.090399     -374.33203      293.36011     -2263.9864      960.18531      0.99696118
    344000  -298.68521      59.030055     -357.71526      314.33905      711.99775      960.18531      0.99696118
    345000  -326.21494      49.963438     -376.17838      266.0587       373.06416      960.18531      0.99696118
    346000  -310.02903      56.091769     -366.1208       298.69248     -1301.9903      960.18531      0.99696118
    347000  -317.87124      56.563592     -374.43484      301.20497      1689.692       960.18531      0.99696118
    348000  -318.27718      57.923158     -376.20034      308.44475     -2330.7411      960.18531      0.99696118
    349000  -334.90577      40.8584       -375.76417      217.57375     -1352.3632      960.18531      0.99696118
    350000  -325.98411      44.22867      -370.21278      235.52067     -1196.1192      960.18531      0.99696118
    351000  -316.84975      53.737488     -370.58724      286.15577     -1440.0105      960.18531      0.99696118
    352000  -332.83625      45.608802     -378.44506      242.86997     -5475.176       960.18531      0.99696118
    353000  -321.23085      57.668734     -378.89958      307.08992     -2661.2648      960.18531      0.99696118
    354000  -314.4551       62.216109     -376.67121      331.30501     -1014.9987      960.18531      0.99696118
    355000  -325.7385       55.564665     -381.30316      295.88561     -2266.8647      960.18531      0.99696118
    356000  -318.72503      59.309209     -378.03423      315.82556      1774.8953      960.18531      0.99696118
    357000  -331.57797      52.474697     -384.05267      279.43132      843.95298      960.18531      0.99696118
    358000  -324.28487      50.114325     -374.39919      266.86218      2536.8579      960.18531      0.99696118
    359000  -330.07446      48.278379     -378.35284      257.08564      279.12825      960.18531      0.99696118
    360000  -295.98291      59.554238     -355.53715      317.13036      3745.3034      960.18531      0.99696118
    361000  -311.95918      47.925596     -359.88477      255.20705     -88.894056      960.18531      0.99696118
    362000  -328.37448      51.022215     -379.3967       271.69676      2909.9288      960.18531      0.99696118
    363000  -311.00642      67.898471     -378.9049       361.56397     -556.01651      960.18531      0.99696118
    364000  -323.02887      48.909964     -371.93883      260.44888     -208.91752      960.18531      0.99696118
    365000  -300.02197      54.405134     -354.4271       289.71103      3913.0967      960.18531      0.99696118
    366000  -324.60721      50.194375     -374.80158      267.28845     -2800.0772      960.18531      0.99696118
    367000  -318.17174      57.11624      -375.28798      304.14786      1669.3981      960.18531      0.99696118
    368000  -314.40251      56.746495     -371.14901      302.17894     -2061.1673      960.18531      0.99696118
    369000  -321.70487      55.53186      -377.23673      295.71093     -747.8437       960.18531      0.99696118
    370000  -320.31549      53.33263      -373.64812      283.99988     -1645.8377      960.18531      0.99696118
    371000  -317.59415      53.996041     -371.59019      287.53258     -2509.8249      960.18531      0.99696118
    372000  -314.7597       52.25972      -367.01942      278.28656      1515.8864      960.18531      0.99696118
    373000  -312.4261       56.551624     -368.97773      301.14124      2.7568249      960.18531      0.99696118
    374000  -320.81853      57.637398     -378.45593      306.92306      3653.3072      960.18531      0.99696118
    375000  -306.46447      61.921446     -368.38592      329.7359       125.19191      960.18531      0.99696118
    376000  -301.87931      63.379505     -365.25882      337.50016      2488.7765      960.18531      0.99696118
    377000  -320.54623      57.267491     -377.81372      304.95328     -980.15059      960.18531      0.99696118
    378000  -307.44465      57.819474     -365.26412      307.89262     -1326.1538      960.18531      0.99696118
    379000  -298.70012      58.475928     -357.17604      311.38828      1617.9008      960.18531      0.99696118
    380000  -324.22797      42.944512     -367.17248      228.68244      1662.093       960.18531      0.99696118
    381000  -325.55818      52.286669     -377.84485      278.43006      842.27571      960.18531      0.99696118
    382000  -341.86238      46.699467     -388.56185      248.67783     -3952.0399      960.18531      0.99696118
    383000  -337.34724      44.80211      -382.14935      238.57428     -324.37476      960.18531      0.99696118
    384000  -327.47746      55.636494     -383.11395      296.26811      1564.1118      960.18531      0.99696118
    385000  -328.50986      51.522297     -380.03216      274.35973     -3590.7466      960.18531      0.99696118
    386000  -323.01981      62.070766     -385.09058      330.53104      829.87181      960.18531      0.99696118
    387000  -305.5957       64.497271     -370.09297      343.45234     -2852.8817      960.18531      0.99696118
    388000  -320.33471      53.583677     -373.91839      285.33672      2694.5789      960.18531      0.99696118
    389000  -329.0997       50.387383     -379.48708      268.31623      38.955042      960.18531      0.99696118
    390000  -314.34872      58.095316     -372.44403      309.3615      -445.103        960.18531      0.99696118
    391000  -316.04964      48.453402     -364.50304      258.01765      3905.5734      960.18531      0.99696118
    392000  -307.40032      53.53574      -360.93606      285.08145     -1787.361       960.18531      0.99696118
    393000  -325.21102      45.566331     -370.77735      242.64381     -504.52143      960.18531      0.99696118
    394000  -316.11239      56.083575     -372.19597      298.64885      942.64926      960.18531      0.99696118
    395000  -322.5796       61.466058     -384.04566      327.31093     -1539.2185      960.18531      0.99696118
    396000  -333.89407      42.445624     -376.33969      226.02583     -4424.5967      960.18531      0.99696118
    397000  -308.77477      53.19656      -361.97133      283.27529     -2991.4097      960.18531      0.99696118
    398000  -322.95105      52.381802     -375.33286      278.93665      1459.7858      960.18531      0.99696118
    399000  -318.58887      55.183001     -373.77187      293.85323     -2900.1987      960.18531      0.99696118
    400000  -298.39447      66.643799     -365.03827      354.88276     -2339.326       960.18531      0.99696118
    401000  -315.17369      51.648256     -366.82194      275.03047     -659.94469      960.18531      0.99696118
    402000  -326.54523      51.428515     -377.97375      273.86033      99.055965      960.18531      0.99696118
    403000  -315.76187      53.321244     -369.08311      283.93924      2947.659       960.18531      0.99696118
    404000  -329.41616      53.992413     -383.40857      287.51327     -542.3927       960.18531      0.99696118
    405000  -326.30203      48.184642     -374.48667      256.58649      4170.1789      960.18531      0.99696118
    406000  -303.85684      56.997918     -360.85476      303.51778     -1284.173       960.18531      0.99696118
    407000  -332.99163      50.907382     -383.89901      271.08526      1299.4431      960.18531      0.99696118
    408000  -315.55396      53.404808     -368.95876      284.38423     -2024.6452      960.18531      0.99696118
    409000  -319.00261      56.397743     -375.40035      300.32181      2468.5874      960.18531      0.99696118
    410000  -289.9026       68.144085     -358.04669      362.87188      1091.6063      960.18531      0.99696118
    411000  -325.32076      51.920536     -377.2413       276.48038      702.2908       960.18531      0.99696118
    412000  -322.37958      49.575072     -371.95466      263.99062      1135.7745      960.18531      0.99696118
    413000  -326.60801      61.183843     -387.79186      325.80812     -2334.8516      960.18531      0.99696118
    414000  -315.04489      55.503229     -370.54812      295.55846      4622.0964      960.18531      0.99696118
    415000  -314.61296      52.380111     -366.99307      278.92765     -2812.5499      960.18531      0.99696118
    416000  -315.73171      55.745369     -371.47708      296.84788      5731.3595      960.18531      0.99696118
    417000  -323.59997      56.319179     -379.91915      299.90345     -1641.9026      960.18531      0.99696118
    418000  -314.33716      65.214009     -379.55117      347.26902      968.65649      960.18531      0.99696118
    419000  -307.76375      59.609376     -367.37313      317.42397     -1607.4331      960.18531      0.99696118
    420000  -326.65851      54.538243     -381.19676      290.41985     -3429.4232      960.18531      0.99696118
    421000  -307.58215      50.072574     -357.65473      266.63986     -1338.1358      960.18531      0.99696118
    422000  -316.1467       47.800369     -363.94707      254.54021     -147.68555      960.18531      0.99696118
    423000  -341.41609      41.980763     -383.39685      223.55041     -6510.5368      960.18531      0.99696118
    424000  -320.45669      57.102013     -377.5587       304.07209      7.1901317      960.18531      0.99696118
    425000  -319.49236      51.850013     -371.34237      276.10484      2240.7159      960.18531      0.99696118
    426000  -323.441        58.361634     -381.80263      310.77967     -3371.4639      960.18531      0.99696118
    427000  -298.63271      57.618983     -356.25169      306.825        203.86495      960.18531      0.99696118
    428000  -306.87707      57.944232     -364.8213       308.55697      1240.9994      960.18531      0.99696118
    429000  -323.21168      53.741042     -376.95273      286.1747       126.29672      960.18531      0.99696118
    430000  -302.83698      64.543911     -367.38089      343.70071     -3188.4465      960.18531      0.99696118
    431000  -325.50564      54.052656     -379.55829      287.83406     -652.99048      960.18531      0.99696118
    432000  -316.27622      62.339533     -378.61575      331.96224     -1296.8197      960.18531      0.99696118
    433000  -318.09171      51.944227     -370.03594      276.60654     -835.74791      960.18531      0.99696118
    434000  -314.329        45.671975     -360.00097      243.20637     -1632.2397      960.18531      0.99696118
    435000  -317.28572      49.992261     -367.27798      266.21218      2537.0283      960.18531      0.99696118
    436000  -337.06021      46.620954     -383.68117      248.25975     -2820.3046      960.18531      0.99696118
    437000  -303.93388      66.203801     -370.13768      352.53974      625.79956      960.18531      0.99696118
    438000  -326.0869       49.593792     -375.68069      264.09031     -1817.1421      960.18531      0.99696118
    439000  -326.35395      50.947826     -377.30178      271.30063      1411.2947      960.18531      0.99696118
    440000  -310.78166      68.716898     -379.49856      365.92215     -2287.7028      960.18531      0.99696118
    441000  -322.71945      59.269726     -381.98918      315.61531     -851.69187      960.18531      0.99696118
    442000  -314.66173      58.973695     -373.63542      314.03893     -683.28429      960.18531      0.99696118
    443000  -313.37591      65.421696     -378.79761      348.37497     -1796.2126      960.18531      0.99696118
    444000  -305.9807       56.603139     -362.58384      301.41556      4341.3488      960.18531      0.99696118
    445000  -322.94162      49.062065     -372.00369      261.25882     -296.48165      960.18531      0.99696118
    446000  -308.03542      55.354134     -363.38956      294.76452      2991.1413      960.18531      0.99696118
    447000  -319.87908      53.440471     -373.31955      284.57414      457.78069      960.18531      0.99696118
    448000  -303.28484      64.358241     -367.64308      342.712        413.5578       960.18531      0.99696118
    449000  -310.81095      54.746624     -365.55758      291.52949      1073.1696      960.18531      0.99696118
    450000  -321.27754      56.194928     -377.47247      299.24181      1775.8561      960.18531      0.99696118
    451000  -301.14636      53.568815     -354.71518      285.25758      6693.6353      960.18531      0.99696118
    452000  -315.36012      53.009447     -368.36956      282.2789      -82.523208      960.18531      0.99696118
    453000  -311.14668      61.539622     -372.68631      327.70267      506.65858      960.18531      0.99696118
    454000  -327.35338      51.091984     -378.44536      272.06828     -1670.0434      960.18531      0.99696118
    455000  -321.04533      54.994913     -376.04025      292.85164     -1252.2023      960.18531      0.99696118
    456000  -310.4913       59.020608     -369.51191      314.28875     -4486.07        960.18531      0.99696118
    457000  -323.64644      55.535952     -379.18239      295.73271     -1383.3013      960.18531      0.99696118
    458000  -315.2259       59.657272     -374.88317      317.67902      3241.5414      960.18531      0.99696118
    459000  -324.03315      49.526716     -373.55986      263.73313      1855.9828      960.18531      0.99696118
    460000  -289.32185      56.191405     -345.51325      299.22304      2407.6775      960.18531      0.99696118
    461000  -304.48437      64.089532     -368.5739       341.28111     -2145.5359      960.18531      0.99696118
    462000  -323.23892      56.569931     -379.80885      301.23873      713.10432      960.18531      0.99696118
    463000  -323.74107      52.683133     -376.42421      280.54126     -2328.0305      960.18531      0.99696118
    464000  -316.76886      56.201458     -372.97032      299.27658      2292.1276      960.18531      0.99696118
    465000  -300.90016      65.391146     -366.29131      348.21229     -326.47004      960.18531      0.99696118
    466000  -302.38554      73.965209     -376.35075      393.86976      5699.176       960.18531      0.99696118
    467000  -320.37817      62.141613     -382.51979      330.90831      3164.5276      960.18531      0.99696118
    468000  -336.97434      55.458379     -392.43272      295.31963      465.36915      960.18531      0.99696118
    469000  -313.61199      64.983869     -378.59585      346.04352      1465.1765      960.18531      0.99696118
    470000  -329.97154      53.993988     -383.96552      287.52165     -1459.126       960.18531      0.99696118
    471000  -326.01401      56.31366      -382.32767      299.87406     -620.61169      960.18531      0.99696118
    472000  -318.85417      66.425342     -385.27952      353.71946      1464.3699      960.18531      0.99696118
    473000  -310.91508      62.11398      -373.02906      330.76116     -1350.8469      960.18531      0.99696118
    474000  -330.54426      50.97299      -381.51725      271.43463      2827.6176      960.18531      0.99696118
    475000  -309.11776      63.429653     -372.54741      337.76721     -3932.4155      960.18531      0.99696118
    476000  -297.11108      61.537752     -358.64883      327.69271      2857.4299      960.18531      0.99696118
    477000  -314.5964       56.990573     -371.58697      303.47867      1503.9302      960.18531      0.99696118
    478000  -310.25887      53.215602     -363.47447      283.37669     -1001.0989      960.18531      0.99696118
    479000  -316.26613      51.370194     -367.63633      273.54977     -2076.487       960.18531      0.99696118
    480000  -309.77625      69.892        -379.66825      372.17964     -1087.8646      960.18531      0.99696118
    481000  -325.00049      52.357407     -377.3579       278.80675     -1316.2159      960.18531      0.99696118
    482000  -303.39525      56.302631     -359.69788      299.81533     -2727.2724      960.18531      0.99696118
    483000  -310.40795      46.35001      -356.75796      246.81695     -755.15106      960.18531      0.99696118
    484000  -320.01559      50.129923     -370.14551      266.94525     -2660.8237      960.18531      0.99696118
    485000  -317.42649      58.386289     -375.81278      310.91096     -342.47827      960.18531      0.99696118
    486000  -328.14233      49.129266     -377.27159      261.61668      767.41183      960.18531      0.99696118
    487000  -330.35747      51.619737     -381.97721      274.87861      4420.1466      960.18531      0.99696118
    488000  -335.95125      44.071877     -380.02313      234.68574     -1764.8652      960.18531      0.99696118
    489000  -301.87039      59.564315     -361.43471      317.18402     -3761.0357      960.18531      0.99696118
    490000  -316.06211      53.630683     -369.6928       285.58703      1073.6835      960.18531      0.99696118
    491000  -329.69366      53.116206     -382.80986      282.8474      -1311.9044      960.18531      0.99696118
    492000  -323.50952      52.522613     -376.03213      279.68648      806.32161      960.18531      0.99696118
    493000  -325.67767      48.641837     -374.31951      259.02109     -48.854725      960.18531      0.99696118
    494000  -313.28949      70.560062     -383.84955      375.73712      1186.2861      960.18531      0.99696118
    495000  -326.57526      58.23672      -384.81198      310.11449     -2973.308       960.18531      0.99696118
    496000  -320.51102      56.420332     -376.93135      300.4421      -400.86449      960.18531      0.99696118
    497000  -307.16114      60.944125     -368.10526      324.5316      -3192.8924      960.18531      0.99696118
    498000  -329.59472      51.227351     -380.82208      272.78912      3907.162       960.18531      0.99696118
    499000  -327.3662       57.212368     -384.57857      304.65975     -807.04445      960.18531      0.99696118
    500000  -330.49929      50.656869     -381.15616      269.75127      2496.2916      960.18531      0.99696118
    501000  -318.35216      56.955865     -375.30803      303.29385     -2480.1676      960.18531      0.99696118
    502000  -325.4887       60.927902     -386.41661      324.44521     -2999.2624      960.18531      0.99696118
    503000  -321.75834      53.000554     -374.75889      282.23155      2854.9995      960.18531      0.99696118
    504000  -306.14183      59.315362     -365.45719      315.85833     -1331.2575      960.18531      0.99696118
    505000  -314.41412      59.527171     -373.94129      316.98623     -3382.0088      960.18531      0.99696118
    506000  -302.87933      63.74918      -366.62851      339.46871     -2532.4167      960.18531      0.99696118
    507000  -298.07002      68.313562     -366.38358      363.77436      834.34189      960.18531      0.99696118
    508000  -313.22645      54.591124     -367.81757      290.70144      1730.4789      960.18531      0.99696118
    509000  -322.49475      55.195532     -377.69028      293.91996      793.66641      960.18531      0.99696118
    510000  -338.13223      52.738427     -390.87066      280.8357      -3970.5905      960.18531      0.99696118
    511000  -317.07095      53.396116     -370.46707      284.33795     -408.79853      960.18531      0.99696118
    512000  -316.0579       54.488923     -370.54682      290.15721      2155.7117      960.18531      0.99696118
    513000  -329.41085      47.246151     -376.65701      251.58896     -2074.1386      960.18531      0.99696118
    514000  -305.80569      43.190303     -348.99599      229.9913       1095.5093      960.18531      0.99696118
    515000  -295.90885      75.380399     -371.28925      401.40574     -71.970688      960.18531      0.99696118
    516000  -328.2451       56.875979     -385.12108      302.86845      839.40709      960.18531      0.99696118
    517000  -312.70783      49.403128     -362.11096      263.07501      1018.1704      960.18531      0.99696118
    518000  -312.3724       58.969473     -371.34187      314.01645     -910.26761      960.18531      0.99696118
    519000  -320.21999      56.265752     -376.48575      299.61895     -2891.2893      960.18531      0.99696118
    520000  -316.21907      69.197894     -385.41697      368.48348     -1261.5664      960.18531      0.99696118
    521000  -322.88412      55.549477     -378.4336       295.80474     -1118.1984      960.18531      0.99696118
    522000  -309.60849      57.565426     -367.17392      306.5398       1445.5365      960.18531      0.99696118
    523000  -309.69281      54.833908     -364.52672      291.99428      724.78034      960.18531      0.99696118
    524000  -322.77796      51.355718     -374.13368      273.47268     -887.29947      960.18531      0.99696118
    525000  -329.01892      61.642879     -390.6618       328.25252      3258.3429      960.18531      0.99696118
    526000  -314.36292      56.693765     -371.05668      301.89815     -3862.2739      960.18531      0.99696118
    527000  -326.50778      49.205549     -375.71333      262.02289      2601.165       960.18531      0.99696118
    528000  -302.48329      62.055952     -364.53924      330.45216     -3121.8041      960.18531      0.99696118
    529000  -309.7656       57.308002     -367.0736       305.169        37.353588      960.18531      0.99696118
    530000  -326.40721      53.965054     -380.37226      287.36758     -2091.1232      960.18531      0.99696118
    531000  -344.52219      41.584778     -386.10696      221.44176      552.64567      960.18531      0.99696118
    532000  -315.10621      60.384817     -375.49103      321.55325     -427.06018      960.18531      0.99696118
    533000  -316.38994      50.904533     -367.29448      271.07009      5280.238       960.18531      0.99696118
    534000  -334.93071      49.408048     -384.33876      263.10121     -2737.0808      960.18531      0.99696118
    535000  -330.77504      50.825512     -381.60055      270.6493      -907.52616      960.18531      0.99696118
    536000  -309.19961      60.02676      -369.22637      319.64657      1784.9806      960.18531      0.99696118
    537000  -341.20086      48.160517     -389.36137      256.45802     -3609.6124      960.18531      0.99696118
    538000  -318.50371      55.405688     -373.9094       295.03905      1414.8765      960.18531      0.99696118
    539000  -303.89784      56.376871     -360.27471      300.21067     -5736.9121      960.18531      0.99696118
    540000  -323.27765      51.631085     -374.90873      274.93903      5467.2545      960.18531      0.99696118
    541000  -338.15221      62.11125      -400.26346      330.74662      1932.5596      960.18531      0.99696118
    542000  -322.56403      60.213861     -382.7779       320.6429       50.710719      960.18531      0.99696118
    543000  -309.17092      59.027165     -368.19808      314.32366     -525.02939      960.18531      0.99696118
    544000  -323.30891      54.387657     -377.69657      289.61797      2752.0676      960.18531      0.99696118
    545000  -323.65955      62.744091     -386.40364      334.11655      2518.6224      960.18531      0.99696118
    546000  -326.91739      50.788511     -377.7059       270.45227     -19.352888      960.18531      0.99696118
    547000  -324.31091      56.302273     -380.61318      299.81343      1838.3114      960.18531      0.99696118
    548000  -314.04537      47.874119     -361.91949      254.93293     -2851.8385      960.18531      0.99696118
    549000  -318.22609      59.366787     -377.59288      316.13217      3028.8534      960.18531      0.99696118
    550000  -321.73709      54.683913     -376.42101      291.19555     -1107.4512      960.18531      0.99696118
    551000  -317.6203       55.311466     -372.93177      294.53731      2464.3514      960.18531      0.99696118
    552000  -313.28012      48.504903     -361.78502      258.2919       3560.3559      960.18531      0.99696118
    553000  -317.11985      49.074652     -366.1945       261.32585      3037.519       960.18531      0.99696118
    554000  -320.81614      54.527385     -375.34352      290.36203      998.17252      960.18531      0.99696118
    555000  -298.0333       58.519104     -356.55241      311.6182       1222.9949      960.18531      0.99696118
    556000  -320.2384       56.937655     -377.17605      303.19688     -4678.4575      960.18531      0.99696118
    557000  -343.87734      49.229386     -393.10673      262.14982      1142.7786      960.18531      0.99696118
    558000  -325.99474      52.099949     -378.09469      277.43577     -2867.8388      960.18531      0.99696118
    559000  -318.42916      62.76583      -381.19499      334.23231     -647.9591       960.18531      0.99696118
    560000  -336.12556      50.092751     -386.21831      266.7473       1284.8028      960.18531      0.99696118
    561000  -322.4778       49.556345     -372.03415      263.8909      -1095.1741      960.18531      0.99696118
    562000  -303.26313      58.066063     -361.32919      309.20573     -1848.4993      960.18531      0.99696118
    563000  -310.48357      64.733183     -375.21676      344.7086      -640.27582      960.18531      0.99696118
    564000  -304.08912      64.329642     -368.41876      342.55971      3751.4139      960.18531      0.99696118
    565000  -298.55797      56.584789     -355.14276      301.31784     -47.321541      960.18531      0.99696118
    566000  -316.53658      58.620219     -375.1568       312.15664      1050.6035      960.18531      0.99696118
    567000  -312.72435      54.546444     -367.27079      290.46352      3275.3628      960.18531      0.99696118
    568000  -303.44462      60.884639     -364.32926      324.21483     -1414.0612      960.18531      0.99696118
    569000  -297.03739      68.060562     -365.09796      362.42711      73.983953      960.18531      0.99696118
    570000  -322.52466      49.606972     -372.13163      264.16049      296.54417      960.18531      0.99696118
    571000  -325.88605      52.256916     -378.14297      278.27163      813.9481       960.18531      0.99696118
    572000  -323.40131      52.944334     -376.34565      281.93217      1024.636       960.18531      0.99696118
    573000  -332.66375      54.539581     -387.20333      290.42697      22.320953      960.18531      0.99696118
    574000  -317.67022      61.388764     -379.05899      326.89934      1441.8657      960.18531      0.99696118
    575000  -316.77085      57.511832     -374.28268      306.25441      1793.522       960.18531      0.99696118
    576000  -323.8204       53.991242     -377.81164      287.50703      1.1369223      960.18531      0.99696118
    577000  -310.8375       63.501962     -374.33946      338.15226     -409.94554      960.18531      0.99696118
    578000  -321.16727      53.440982     -374.60825      284.57686     -1407.5122      960.18531      0.99696118
    579000  -308.89548      59.891645     -368.78713      318.92708     -335.54229      960.18531      0.99696118
    580000  -323.28036      46.827602     -370.10796      249.36016      959.27296      960.18531      0.99696118
    581000  -323.65957      58.940075     -382.59965      313.8599      -1163.5625      960.18531      0.99696118
    582000  -314.25924      58.159539     -372.41877      309.70349      182.66194      960.18531      0.99696118
    583000  -307.60253      59.688486     -367.29102      317.84524     -2960.1024      960.18531      0.99696118
    584000  -302.56851      44.760798     -347.32931      238.35429     -506.88974      960.18531      0.99696118
    585000  -310.79231      56.514177     -367.30648      300.94183      1826.4053      960.18531      0.99696118
    586000  -322.31746      53.742784     -376.06024      286.18397      974.73003      960.18531      0.99696118
    587000  -305.02008      61.635313     -366.65539      328.21222      729.51398      960.18531      0.99696118
    588000  -318.44291      43.420277     -361.86319      231.21592      172.76782      960.18531      0.99696118
    589000  -316.38786      54.35884      -370.7467       289.46451     -2195.8071      960.18531      0.99696118
    590000  -326.03722      52.89395      -378.93117      281.66387      284.64629      960.18531      0.99696118
    591000  -310.38773      57.205315     -367.59304      304.62218      1652.8648      960.18531      0.99696118
    592000  -285.82319      68.114231     -353.93742      362.7129       1234.7129      960.18531      0.99696118
    593000  -311.92131      54.523671     -366.44498      290.34225     -139.62733      960.18531      0.99696118
    594000  -308.65243      67.262859     -375.91529      358.17929     -3253.5622      960.18531      0.99696118
    595000  -309.29398      61.251219     -370.5452       326.1669       577.79276      960.18531      0.99696118
    596000  -324.24684      56.795422     -381.04226      302.43948     -1008.2252      960.18531      0.99696118
    597000  -312.22128      56.53975      -368.76102      301.07801     -2037.0343      960.18531      0.99696118
    598000  -323.65715      53.083776     -376.74093      282.67471      4437.1517      960.18531      0.99696118
    599000  -340.17177      48.365134     -388.53691      257.54762      3258.3742      960.18531      0.99696118
    600000  -281.748        68.379561     -350.12756      364.12581      463.67167      960.18531      0.99696118
    601000  -305.53729      57.686858     -363.22415      307.18644     -3986.9347      960.18531      0.99696118
    602000  -328.90121      52.682499     -381.5837       280.53788     -2071.0935      960.18531      0.99696118
    603000  -339.34576      48.185547     -387.5313       256.59131      4702.8437      960.18531      0.99696118
    604000  -314.15867      59.85965      -374.01832      318.7567      -2629.3325      960.18531      0.99696118
    605000  -325.29948      45.877857     -371.17733      244.3027      -4057.6979      960.18531      0.99696118
    606000  -332.48268      53.444254     -385.92693      284.59428     -1382.2268      960.18531      0.99696118
    607000  -341.66957      47.658277     -389.32784      253.78356     -590.70571      960.18531      0.99696118
    608000  -307.12663      60.896544     -368.02317      324.27823     -1197.6803      960.18531      0.99696118
    609000  -322.58552      49.436788     -372.02231      263.25425     -778.05134      960.18531      0.99696118
    610000  -319.56604      58.269598     -377.83564      310.28956     -1714.6833      960.18531      0.99696118
    611000  -328.28141      43.287733     -371.56914      230.51012      766.93605      960.18531      0.99696118
    612000  -316.99066      53.916453     -370.90712      287.10877     -2890.7359      960.18531      0.99696118
    613000  -323.70715      51.270361     -374.97751      273.01815     -570.91948      960.18531      0.99696118
    614000  -314.02648      59.702214     -373.72869      317.91834     -916.64586      960.18531      0.99696118
    615000  -310.3662       60.363479     -370.72968      321.43962      1812.433       960.18531      0.99696118
    616000  -325.54522      60.747379     -386.2926       323.48392     -3588.8981      960.18531      0.99696118
    617000  -320.43055      63.126282     -383.55683      336.15174     -1187.449       960.18531      0.99696118
    618000  -330.05345      65.605115     -395.65857      349.35169      3088.605       960.18531      0.99696118
    619000  -333.11158      57.081456     -390.19304      303.96263     -792.64321      960.18531      0.99696118
    620000  -333.50808      50.18199      -383.69007      267.2225       439.38503      960.18531      0.99696118
    621000  -312.26781      61.057939     -373.32575      325.13767      3229.0072      960.18531      0.99696118
    622000  -322.37172      51.000754     -373.37247      271.58248      237.69902      960.18531      0.99696118
    623000  -302.34851      63.085373     -365.43388      335.9339       2640.5951      960.18531      0.99696118
    624000  -322.87745      49.886008     -372.76346      265.64638     -3055.7655      960.18531      0.99696118
    625000  -302.98487      52.716606     -355.70148      280.7195      -2557.6364      960.18531      0.99696118
    626000  -313.54189      57.566576     -371.10847      306.54593     -1607.5492      960.18531      0.99696118
    627000  -305.59465      54.557157     -360.15181      290.52057      909.66955      960.18531      0.99696118
    628000  -307.87816      64.011713     -371.88987      340.86671     -780.46624      960.18531      0.99696118
    629000  -301.66185      64.636863     -366.29871      344.19568      374.53784      960.18531      0.99696118
    630000  -322.44268      52.045578     -374.48826      277.14624     -1328.7774      960.18531      0.99696118
    631000  -323.31532      57.992192     -381.30751      308.81236      1783.7082      960.18531      0.99696118
    632000  -313.52039      64.626962     -378.14736      344.14296     -4876.1993      960.18531      0.99696118
    633000  -327.7065       53.511874     -381.21838      284.95436     -607.27349      960.18531      0.99696118
    634000  -312.13011      56.678324     -368.80844      301.81592      1776.8978      960.18531      0.99696118
    635000  -301.98093      66.773797     -368.75472      355.575        1362.5921      960.18531      0.99696118
    636000  -305.71127      58.592147     -364.30342      312.00716     -1325.0478      960.18531      0.99696118
    637000  -316.68656      51.875494     -368.56205      276.24053     -1534.0096      960.18531      0.99696118
    638000  -299.82285      62.959669     -362.78252      335.26451      72.89694       960.18531      0.99696118
    639000  -303.11143      49.676646     -352.78808      264.53151      4126.2592      960.18531      0.99696118
    640000  -307.54607      61.291351     -368.83742      326.38061      348.04955      960.18531      0.99696118
    641000  -305.96929      60.531637     -366.50092      322.33507      616.46401      960.18531      0.99696118
    642000  -323.42139      58.864429     -382.28581      313.45708     -3223.4057      960.18531      0.99696118
    643000  -294.27937      66.854509     -361.13388      356.0048      -500.81056      960.18531      0.99696118
    644000  -315.6963       54.36194      -370.05824      289.48102     -2754.3348      960.18531      0.99696118
    645000  -311.18699      61.091827     -372.27882      325.31812     -1025.6859      960.18531      0.99696118
    646000  -335.51145      53.289561     -388.80101      283.77053     -859.27233      960.18531      0.99696118
    647000  -304.97985      58.425018     -363.40487      311.11719      1051.1686      960.18531      0.99696118
    648000  -315.84917      57.133618     -372.98279      304.24039      1387.6293      960.18531      0.99696118
    649000  -308.4711       53.978315     -362.44942      287.43819     -224.91541      960.18531      0.99696118
    650000  -327.99555      48.007137     -376.00268      255.64126      3973.6017      960.18531      0.99696118
[...]
   2842000  -323.19945      53.252121     -376.45157      283.57116     -2332.0417      960.18531      0.99696118
   2843000  -323.47968      64.092944     -387.57262      341.29928      1765.2653      960.18531      0.99696118
   2844000  -327.22212      55.758315     -382.98044      296.91681     -1390.97        960.18531      0.99696118
   2845000  -306.85978      53.886599     -360.74638      286.9498       2680.4741      960.18531      0.99696118
   2846000  -315.5545       54.110036     -369.66454      288.13962      1823.3343      960.18531      0.99696118
   2847000  -322.09631      55.035141     -377.13145      293.06586      655.09453      960.18531      0.99696118
   2848000  -302.10146      59.116914     -361.21837      314.80158     -2228.8383      960.18531      0.99696118
   2849000  -319.52857      51.922535     -371.4511       276.49103      3216.0603      960.18531      0.99696118
   2850000  -325.28255      48.581121     -373.86367      258.69776     -1530.334       960.18531      0.99696118
   2851000  -318.54874      50.637759     -369.1865       269.6495      -1745.8705      960.18531      0.99696118
   2852000  -313.89359      53.973489     -367.86708      287.41249      2325.3226      960.18531      0.99696118
   2853000  -329.44069      48.587688     -378.02838      258.73274      5103.6495      960.18531      0.99696118
   2854000  -307.147        62.525731     -369.67273      332.95376      4440.3152      960.18531      0.99696118
   2855000  -331.17374      48.295049     -379.46879      257.17441      1645.8757      960.18531      0.99696118
   2856000  -302.47717      57.339919     -359.81709      305.33896     -2112.48        960.18531      0.99696118
   2857000  -291.7755       74.091845     -365.86734      394.54411      5226.2255      960.18531      0.99696118
   2858000  -315.06335      58.677443     -373.74079      312.46137     -1392.3826      960.18531      0.99696118
   2859000  -311.70675      61.585517     -373.29227      327.94706     -3532.5368      960.18531      0.99696118
   2860000  -327.24035      50.507153     -377.7475       268.95402     -3442.4586      960.18531      0.99696118
   2861000  -318.21251      63.124261     -381.33677      336.14098      1392.378       960.18531      0.99696118
   2862000  -325.2968       54.162382     -379.45918      288.41836      69.85144       960.18531      0.99696118
   2863000  -322.28932      57.518055     -379.80738      306.28755     -904.07489      960.18531      0.99696118
   2864000  -348.60592      50.130688     -398.7366       266.94931     -3335.1683      960.18531      0.99696118
   2865000  -313.36647      59.212526     -372.579        315.31072     -811.67814      960.18531      0.99696118
   2866000  -312.64557      60.511992     -373.15756      322.23046      871.52306      960.18531      0.99696118
   2867000  -325.05173      45.508538     -370.56027      242.33606      813.59011      960.18531      0.99696118
   2868000  -301.88141      65.734897     -367.61631      350.04279      2588.7199      960.18531      0.99696118
   2869000  -313.90184      69.306538     -383.20838      369.06202     -1003.347       960.18531      0.99696118
   2870000  -322.20428      53.20231      -375.40659      283.30591      192.96789      960.18531      0.99696118
   2871000  -315.47732      58.901161     -374.37848      313.65268     -391.09704      960.18531      0.99696118
   2872000  -314.47845      50.206945     -364.68539      267.35539      1284.9137      960.18531      0.99696118
   2873000  -324.27017      55.439574     -379.70974      295.2195      -1190.5084      960.18531      0.99696118
   2874000  -316.02436      58.882366     -374.90673      313.5526       200.45892      960.18531      0.99696118
   2875000  -317.90423      56.780555     -374.68478      302.36031      1621.8583      960.18531      0.99696118
   2876000  -299.77778      54.372437     -354.15021      289.53692     -994.76202      960.18531      0.99696118
   2877000  -299.23351      68.855883     -368.08939      366.66225      468.55255      960.18531      0.99696118
   2878000  -330.5386       51.023114     -381.56172      271.70155      2746.9953      960.18531      0.99696118
   2879000  -306.51754      62.746865     -369.2644       334.13132      2699.9634      960.18531      0.99696118
   2880000  -315.63806      61.841528     -377.47959      329.31033      2122.3971      960.18531      0.99696118
   2881000  -302.58799      67.519026     -370.10702      359.5434      -1041.7172      960.18531      0.99696118
   2882000  -298.14655      64.155691     -362.30224      341.63341      2892.9273      960.18531      0.99696118
   2883000  -295.9145       68.515362     -364.42986      364.84896     -2843.7574      960.18531      0.99696118
   2884000  -328.32171      53.818557     -382.14027      286.58747     -497.14374      960.18531      0.99696118
   2885000  -300.10826      68.078982     -368.18725      362.5252       574.87763      960.18531      0.99696118
   2886000  -325.02819      58.536005     -383.5642       311.7082      -1836.9174      960.18531      0.99696118
   2887000  -320.36815      60.845899     -381.21405      324.00854     -3136.6934      960.18531      0.99696118
   2888000  -327.6092       49.662157     -377.27135      264.45436     -1355.6184      960.18531      0.99696118
   2889000  -325.74451      62.849639     -388.59415      334.6786       17.595591      960.18531      0.99696118
   2890000  -324.65137      45.554839     -370.2062       242.58261     -261.3412       960.18531      0.99696118
   2891000  -319.29088      55.526146     -374.81702      295.68049     -423.08221      960.18531      0.99696118
   2892000  -324.017        59.355911     -383.37291      316.07425      2574.1752      960.18531      0.99696118
   2893000  -319.57467      55.837691     -375.41236      297.3395       112.6441       960.18531      0.99696118
   2894000  -302.19229      56.783395     -358.97568      302.37543      124.71799      960.18531      0.99696118
   2895000  -318.72252      50.75842      -369.48094      270.29203     -2652.7851      960.18531      0.99696118
   2896000  -320.77283      57.662336     -378.43516      307.05585      1317.3704      960.18531      0.99696118
   2897000  -323.67946      47.003303     -370.68276      250.29578      3192.9464      960.18531      0.99696118
   2898000  -301.8441       49.569249     -351.41335      263.95962      7235.3411      960.18531      0.99696118
   2899000  -326.22852      51.350455     -377.57898      273.44466      201.50716      960.18531      0.99696118
   2900000  -302.49492      74.51776      -377.01268      396.81213     -2392.8393      960.18531      0.99696118
   2901000  -326.58004      56.847898     -383.42794      302.71892      2887.6121      960.18531      0.99696118
   2902000  -317.86285      64.508777     -382.37163      343.51362      1069.8068      960.18531      0.99696118
   2903000  -309.71872      64.864219     -374.58294      345.40637     -1123.0351      960.18531      0.99696118
   2904000  -321.17208      49.508973     -370.68105      263.63864     -2368.5694      960.18531      0.99696118
   2905000  -321.61952      61.960969     -383.58049      329.94637      2243.3198      960.18531      0.99696118
   2906000  -318.18469      60.342172     -378.52686      321.32616     -2315.3642      960.18531      0.99696118
   2907000  -307.9567       57.701861     -365.65856      307.26633     -1427.1581      960.18531      0.99696118
   2908000  -314.82759      55.987995     -370.81559      298.13987     -2359.9608      960.18531      0.99696118
   2909000  -323.24617      57.865559     -381.11173      308.13803     -1107.217       960.18531      0.99696118
   2910000  -313.33358      52.259689     -365.59327      278.28639     -2457.7218      960.18531      0.99696118
   2911000  -312.04316      55.901551     -367.94471      297.67955     -850.71989      960.18531      0.99696118
   2912000  -332.51471      59.218952     -391.73366      315.34494     -1072.8385      960.18531      0.99696118
   2913000  -329.33729      52.427968     -381.76526      279.18249     -3141.2659      960.18531      0.99696118
   2914000  -326.14265      53.392731     -379.53539      284.31991     -1923.8971      960.18531      0.99696118
   2915000  -316.16939      50.284318     -366.45371      267.76741     -532.23292      960.18531      0.99696118
   2916000  -313.84234      51.981265     -365.8236       276.80377     -2094.2164      960.18531      0.99696118
   2917000  -312.38899      56.411308     -368.8003       300.39405      4535.4917      960.18531      0.99696118
   2918000  -285.26285      64.956237     -350.21909      345.89637      34.708335      960.18531      0.99696118
   2919000  -315.47922      58.931343     -374.41056      313.8134       2862.296       960.18531      0.99696118
   2920000  -321.86657      47.538196     -369.40477      253.14412     -3114.6464      960.18531      0.99696118
   2921000  -305.38441      55.522655     -360.90707      295.66191      471.50732      960.18531      0.99696118
   2922000  -327.9964       51.92252      -379.91892      276.49094      444.47919      960.18531      0.99696118
   2923000  -304.34237      63.732996     -368.07537      339.38253     -795.26516      960.18531      0.99696118
   2924000  -296.98122      62.411005     -359.39223      332.34284      1753.1838      960.18531      0.99696118
   2925000  -299.23308      70.170851     -369.40393      373.66454     -1802.8243      960.18531      0.99696118
   2926000  -329.82087      49.760922     -379.58179      264.98029     -121.87265      960.18531      0.99696118
   2927000  -316.13563      57.716061     -373.85169      307.34194      2906.6785      960.18531      0.99696118
   2928000  -307.69017      53.959139     -361.64931      287.33608      4453.7622      960.18531      0.99696118
   2929000  -327.941        58.728707     -386.66971      312.73435     -2041.6715      960.18531      0.99696118
   2930000  -316.184        48.160228     -364.34422      256.45648     -273.7702       960.18531      0.99696118
   2931000  -324.14534      49.141556     -373.2869       261.68212      24.66075       960.18531      0.99696118
   2932000  -298.21812      62.524523     -360.74264      332.94733     -245.2337       960.18531      0.99696118
   2933000  -315.00713      54.622665     -369.6298       290.8694      -993.89645      960.18531      0.99696118
   2934000  -320.6753       57.717182     -378.39248      307.34791     -2873.6793      960.18531      0.99696118
   2935000  -309.0767       61.65186      -370.72856      328.30034      446.39887      960.18531      0.99696118
   2936000  -328.9242       58.299789     -387.22399      310.45034      1242.341       960.18531      0.99696118
   2937000  -303.28695      61.209578     -364.49653      325.94516      1184.5284      960.18531      0.99696118
   2938000  -322.90323      56.582425     -379.48565      301.30525     -526.09142      960.18531      0.99696118
   2939000  -322.27679      46.75268      -369.02947      248.9612       274.05933      960.18531      0.99696118
   2940000  -314.31619      55.158796     -369.47499      293.72433     -23.975597      960.18531      0.99696118
   2941000  -323.8726       56.385745     -380.25834      300.25792     -603.02094      960.18531      0.99696118
   2942000  -332.71664      49.681821     -382.39846      264.55907      461.58598      960.18531      0.99696118
   2943000  -316.53575      55.244841     -371.78059      294.18253      3603.9335      960.18531      0.99696118
   2944000  -319.36601      58.800308     -378.16632      313.11563     -236.09265      960.18531      0.99696118
   2945000  -311.72897      65.829879     -377.55885      350.54858     -883.42133      960.18531      0.99696118
   2946000  -310.00454      66.608461     -376.613        354.69458     -1244.9191      960.18531      0.99696118
   2947000  -313.96073      57.699916     -371.66065      307.25597      2249.9696      960.18531      0.99696118
   2948000  -320.07345      58.545316     -378.61877      311.75778     -1870.7183      960.18531      0.99696118
   2949000  -329.30305      53.153548     -382.4566       283.04625     -690.07711      960.18531      0.99696118
   2950000  -326.04191      53.648936     -379.69085      285.68422     -2974.6968      960.18531      0.99696118
   2951000  -321.29928      49.836402     -371.13569      265.38222      130.80032      960.18531      0.99696118
   2952000  -314.93044      53.438661     -368.3691       284.5645      -1641.711       960.18531      0.99696118
   2953000  -301.15986      67.435011     -368.59487      359.09601      1981.9347      960.18531      0.99696118
   2954000  -323.30631      57.695122     -381.00143      307.23044     -281.52993      960.18531      0.99696118
   2955000  -302.08105      61.804917     -363.88596      329.11538     -4187.5429      960.18531      0.99696118
   2956000  -330.7985       48.909562     -379.70806      260.44674     -4571.8736      960.18531      0.99696118
   2957000  -316.73211      54.619597     -371.35171      290.85306     -2159.8111      960.18531      0.99696118
   2958000  -321.698        58.274956     -379.97295      310.3181       1778.8351      960.18531      0.99696118
   2959000  -327.88585      50.877558     -378.76341      270.92645     -1088.5859      960.18531      0.99696118
   2960000  -317.60736      55.137826     -372.74519      293.61267     -4278.9709      960.18531      0.99696118
   2961000  -315.25261      52.410901     -367.66351      279.0916      -1987.6989      960.18531      0.99696118
   2962000  -320.57376      60.420281     -380.99404      321.7421      -553.24431      960.18531      0.99696118
   2963000  -330.61074      48.131939     -378.74268      256.30584     -1975.7072      960.18531      0.99696118
   2964000  -315.70541      54.940054     -370.64546      292.55952      4690.3816      960.18531      0.99696118
   2965000  -318.0633       61.507999     -379.5713       327.53427     -6064.6939      960.18531      0.99696118
   2966000  -308.35355      54.098744     -362.45229      288.07949      1581.7851      960.18531      0.99696118
   2967000  -314.85636      55.451481     -370.30784      295.2829      -3359.3682      960.18531      0.99696118
   2968000  -324.02576      46.083422     -370.10918      245.39735     -3434.7309      960.18531      0.99696118
   2969000  -342.51468      51.308284     -393.82296      273.2201      -547.22245      960.18531      0.99696118
   2970000  -315.43721      50.658222     -366.09543      269.75847      426.27133      960.18531      0.99696118
   2971000  -316.91161      56.847673     -373.75928      302.71772     -1229.6799      960.18531      0.99696118
   2972000  -320.5104       53.629125     -374.13952      285.57873      3104.6749      960.18531      0.99696118
   2973000  -312.05352      53.429746     -365.48327      284.51702      2214.8933      960.18531      0.99696118
   2974000  -301.01536      56.786396     -357.80175      302.39141      235.87972      960.18531      0.99696118
   2975000  -329.51074      55.133726     -384.64446      293.59084      1467.0885      960.18531      0.99696118
   2976000  -304.43577      65.688712     -370.12449      349.79685     -1672.8882      960.18531      0.99696118
   2977000  -332.86825      48.943861     -381.81211      260.62938      1351.3369      960.18531      0.99696118
   2978000  -316.36826      62.841689     -379.20995      334.63626     -1887.418       960.18531      0.99696118
   2979000  -328.07717      54.809845     -382.88702      291.86615      2132.1642      960.18531      0.99696118
   2980000  -327.21343      51.423828     -378.63726      273.83538     -3864.7923      960.18531      0.99696118
   2981000  -299.04173      59.547671     -358.5894       317.09539      1390.6049      960.18531      0.99696118
   2982000  -311.82675      50.551021     -362.37777      269.18762      1647.4051      960.18531      0.99696118
   2983000  -326.31151      53.312416     -379.62393      283.89223      1749.9669      960.18531      0.99696118
   2984000  -321.80379      62.721804     -384.5256       333.99787     -1468.5704      960.18531      0.99696118
   2985000  -308.67977      56.838851     -365.51862      302.67074      224.32661      960.18531      0.99696118
   2986000  -328.55009      54.65859      -383.20868      291.0607      -2954.3486      960.18531      0.99696118
   2987000  -330.45753      50.289056     -380.74659      267.79263      842.66588      960.18531      0.99696118
   2988000  -318.3743       53.384169     -371.75847      284.27432     -1481.338       960.18531      0.99696118
   2989000  -311.75595      65.447625     -377.20358      348.51305     -1207.6742      960.18531      0.99696118
   2990000  -328.2694       52.625087     -380.89449      280.23216      48.387699      960.18531      0.99696118
   2991000  -311.24053      62.940675     -374.1812       335.16337     -351.37058      960.18531      0.99696118
   2992000  -328.47549      60.090817     -388.56631      319.98768     -605.32763      960.18531      0.99696118
   2993000  -315.61739      57.17051      -372.7879       304.43685     -173.39964      960.18531      0.99696118
   2994000  -303.13976      55.261195     -358.40096      294.26962     -2533.9653      960.18531      0.99696118
   2995000  -324.66673      55.326814     -379.99354      294.61904     -1467.0072      960.18531      0.99696118
   2996000  -303.01678      63.693128     -366.70991      339.17023      562.15921      960.18531      0.99696118
   2997000  -326.46497      51.065027     -377.52999      271.92474     -544.18116      960.18531      0.99696118
   2998000  -314.24924      58.219788     -372.46903      310.02432     -1874.6949      960.18531      0.99696118
   2999000  -302.67007      61.733515     -364.40358      328.73516      2030.8258      960.18531      0.99696118
   3000000  -313.77409      50.748046     -364.52214      270.23679     -1671.4394      960.18531      0.99696118
Loop time of 866.34 on 1 procs for 2000000 steps with 96 atoms

Performance: 199.460 ns/day, 0.120 hours/ns, 2308.564 timesteps/s
99.7% CPU use with 1 MPI tasks x 1 OpenMP threads

MPI task timing breakdown:
Section |  min time  |  avg time  |  max time  |%varavg| %total
---------------------------------------------------------------
Pair    | 678.03     | 678.03     | 678.03     |   0.0 | 78.26
Bond    | 0.10626    | 0.10626    | 0.10626    |   0.0 |  0.01
Kspace  | 117.91     | 117.91     | 117.91     |   0.0 | 13.61
Neigh   | 32.379     | 32.379     | 32.379     |   0.0 |  3.74
Comm    | 23.244     | 23.244     | 23.244     |   0.0 |  2.68
Output  | 0.24837    | 0.24837    | 0.24837    |   0.0 |  0.03
Modify  | 11.083     | 11.083     | 11.083     |   0.0 |  1.28
Other   |            | 3.344      |            |       |  0.39

Nlocal:             96 ave          96 max          96 min
Histogram: 1 0 0 0 0 0 0 0 0 0
Nghost:           3741 ave        3741 max        3741 min
Histogram: 1 0 0 0 0 0 0 0 0 0
Neighs:          34765 ave       34765 max       34765 min
Histogram: 1 0 0 0 0 0 0 0 0 0

Total # of neighbors = 34765
Ave neighs/atom = 362.13542
Ave special neighs/atom = 2
Neighbor list builds = 45180
Dangerous builds = 0

# write data file
write_data data.after_prod.lmp
System init for write_data ...
PPPM initialization ...
  using 12-bit tables for long-range coulomb (src/kspace.cpp:342)
  G vector (1/distance) = 0.30847861
  grid = 9 9 9
  stencil order = 5
  estimated absolute RMS force accuracy = 0.0027675926
  estimated relative force accuracy = 8.334523e-06
  using double precision FFTW3
  3d grid and FFT values/proc = 4096 729
Generated 1 of 1 mixed pair_coeff terms from geometric mixing rule

# clean up
undump dPROD
unfix fTHERMO
unfix fMOM
unfix fSHAKE
Total wall time: 0:21:39
