LAMMPS (23 Jun 2022 - Update 4)
  using 1 OpenMP thread(s) per MPI task
# created by fftool

# System settings
units real
boundary p p p  # Periodic boundary conditions

# definition of atoms, bonds, angles
atom_style full
bond_style harmonic
angle_style harmonic

# definition of pair potentials
special_bonds lj/coul 0.0 0.0 0.5
pair_style lj/cut/coul/long 10.0 10.0
pair_modify mix geometric tail yes
kspace_style pppm 1.0e-5

# read data file
read_data data.lmp
Reading data file ...
  orthogonal box = (0 0 0) to (9.865483 9.865483 9.865483)
  1 by 1 by 1 MPI processor grid
  reading atoms ...
  96 atoms
  scanning bonds ...
  1 = max bonds/atom
  scanning angles ...
  1 = max angles/atom
  reading bonds ...
  64 bonds
  reading angles ...
  32 angles
Finding 1-2 1-3 1-4 neighbors ...
  special bond factors lj:    0        0        0.5
  special bond factors coul:  0        0        0.5
     2 = max # of 1-2 neighbors
     1 = max # of 1-3 neighbors
     1 = max # of 1-4 neighbors
     2 = max # of special neighbors
  special bonds CPU = 0.000 seconds
  read_data CPU = 0.004 seconds

# definition of LJ parameters
pair_coeff    1    1     0.000000     0.000000  # Hw Hw
pair_coeff    2    2     0.163315     3.168823  # Ow-Ow

############################################

# remove energy hotspots
minimize 1.0e-4 1.0e-6 100 1000
WARNING: Using 'neigh_modify every 1 delay 0 check yes' setting during minimization (src/min.cpp:187)
PPPM initialization ...
  using 12-bit tables for long-range coulomb (src/kspace.cpp:342)
  G vector (1/distance) = 0.30847861
  grid = 9 9 9
  stencil order = 5
  estimated absolute RMS force accuracy = 0.0027675926
  estimated relative force accuracy = 8.334523e-06
  using double precision FFTW3
  3d grid and FFT values/proc = 4096 729
Generated 1 of 1 mixed pair_coeff terms from geometric mixing rule
Neighbor list info ...
  update every 1 steps, delay 0 steps, check yes
  max neighbors/atom: 2000, page size: 100000
  master list distance cutoff = 12
  ghost atom cutoff = 12
  binsize = 6, bins = 2 2 2
  1 neighbor lists, perpetual/occasional/extra = 1 0 0
  (1) pair lj/cut/coul/long, perpetual
      attributes: half, newton on
      pair build: half/bin/newton
      stencil: half/bin/3d
      bin: standard
Per MPI rank memory allocation (min/avg/max) = 8.323 | 8.323 | 8.323 Mbytes
   Step          Temp          E_pair         E_mol          TotEng         Press
         0   0              107169.72      6.4704025e-09  107169.72      30678616
       100   0             -491.0784       44.987799     -446.0906      -4107.8084
Loop time of 0.109543 on 1 procs for 100 steps with 96 atoms

99.6% CPU use with 1 MPI tasks x 1 OpenMP threads

Minimization stats:
  Stopping criterion = max iterations
  Energy initial, next-to-last, final =
      107169.723011962  -445.776488558793  -446.090604385508
  Force two-norm initial, final = 1512841.6 17.172303
  Force max component initial, final = 1035603.8 3.3780747
  Final line search alpha, max atom move = 0.0053740489 0.018153939
  Iterations, force evaluations = 100 177

MPI task timing breakdown:
Section |  min time  |  avg time  |  max time  |%varavg| %total
---------------------------------------------------------------
Pair    | 0.092564   | 0.092564   | 0.092564   |   0.0 | 84.50
Bond    | 0.00071261 | 0.00071261 | 0.00071261 |   0.0 |  0.65
Kspace  | 0.010742   | 0.010742   | 0.010742   |   0.0 |  9.81
Neigh   | 0.0028371  | 0.0028371  | 0.0028371  |   0.0 |  2.59
Comm    | 0.0021141  | 0.0021141  | 0.0021141  |   0.0 |  1.93
Output  | 9.651e-06  | 9.651e-06  | 9.651e-06  |   0.0 |  0.01
Modify  | 0          | 0          | 0          |   0.0 |  0.00
Other   |            | 0.0005644  |            |       |  0.52

Nlocal:             96 ave          96 max          96 min
Histogram: 1 0 0 0 0 0 0 0 0 0
Nghost:           3896 ave        3896 max        3896 min
Histogram: 1 0 0 0 0 0 0 0 0 0
Neighs:          34640 ave       34640 max       34640 min
Histogram: 1 0 0 0 0 0 0 0 0 0

Total # of neighbors = 34640
Ave neighs/atom = 360.83333
Ave special neighs/atom = 2
Neighbor list builds = 4
Dangerous builds = 0
reset_timestep 0

# constrain water bonds and angles
fix fSHAKE all shake 0.0001 20 0 b 1 a 1
       0 = # of size 2 clusters
       0 = # of size 3 clusters
       0 = # of size 4 clusters
      32 = # of frozen angles
  find clusters CPU = 0.000 seconds

# remove Center of Mass movement every 100 steps
fix fMOM all momentum 100 linear 1 1 1

# define the neighbor list
neighbor 2.0 bin

# IMPORTANT: timestep and temperature and pressure
timestep 1.0
variable vTK equal 298.15
variable vPBAR equal 1.0

# randomize velocities
velocity all create ${vTK} 45338
velocity all create 298.15 45338

# thermostat (solving the ODE)
fix fTHERMO all nvt temp ${vTK} ${vTK} 100
fix fTHERMO all nvt temp 298.15 ${vTK} 100
fix fTHERMO all nvt temp 298.15 298.15 100

# print settings
thermo 1000
thermo_style custom step etotal ke pe temp press vol density
# trajectory output
dump dEQUI all custom 1000 equi.lammpstrj id element xu yu zu
dump_modify dEQUI element H O sort id

# equilibration
# 1 ns
run 1000000
PPPM initialization ...
  using 12-bit tables for long-range coulomb (src/kspace.cpp:342)
  G vector (1/distance) = 0.30847861
  grid = 9 9 9
  stencil order = 5
  estimated absolute RMS force accuracy = 0.0027675926
  estimated relative force accuracy = 8.334523e-06
  using double precision FFTW3
  3d grid and FFT values/proc = 4096 729
Generated 1 of 1 mixed pair_coeff terms from geometric mixing rule
Per MPI rank memory allocation (min/avg/max) = 9.332 | 9.332 | 9.332 Mbytes
   Step         TotEng         KinEng         PotEng          Temp          Press          Volume        Density
         0  -435.08851      55.989897     -491.0784       298.15        -21144.6        960.18531      0.99696118
      1000  -310.8254       60.43347      -371.25887      321.81233     -970.93059      960.18531      0.99696118
      2000  -304.73207      59.926872     -364.65894      319.11466      412.56223      960.18531      0.99696118
      3000  -303.76744      57.740008     -361.50745      307.46946      3245.5457      960.18531      0.99696118
      4000  -321.64904      53.61087      -375.25991      285.48152     -2451.1012      960.18531      0.99696118
      5000  -322.50366      55.403187     -377.90684      295.02573     -1495.5706      960.18531      0.99696118
      6000  -310.32767      63.602392     -373.93006      338.68705     -748.35196      960.18531      0.99696118
      7000  -337.61087      44.010258     -381.62113      234.35761     -2227.2186      960.18531      0.99696118
      8000  -309.57365      52.712256     -362.2859       280.69634     -1127.0891      960.18531      0.99696118
      9000  -311.52858      54.729495     -366.25807      291.43827     -0.081334007    960.18531      0.99696118
     10000  -317.44231      52.354382     -369.79669      278.79064      305.69134      960.18531      0.99696118
     11000  -318.58304      57.422161     -376.0052       305.7769      -1060.5091      960.18531      0.99696118
     12000  -323.187        59.113695     -382.30069      314.78444      923.23013      960.18531      0.99696118
     13000  -333.23182      62.160528     -395.39234      331.00903      211.31581      960.18531      0.99696118
     14000  -313.93285      70.996714     -384.92956      378.06232      274.88529      960.18531      0.99696118
     15000  -315.78878      55.415068     -371.20385      295.089       -1350.7397      960.18531      0.99696118
     16000  -323.51588      47.526637     -371.04252      253.08257      1030.6213      960.18531      0.99696118
     17000  -328.08389      53.990958     -382.07484      287.50552     -1244.971       960.18531      0.99696118
     18000  -328.33704      57.850247     -386.18729      308.05649      66.716925      960.18531      0.99696118
     19000  -325.30436      60.98658      -386.29094      324.75768      3413.639       960.18531      0.99696118
     20000  -331.4219       49.012643     -380.43455      260.99565     -3885.0808      960.18531      0.99696118
     21000  -319.47732      56.234356     -375.71168      299.45176      2084.0068      960.18531      0.99696118
     22000  -322.79462      61.511631     -384.30625      327.55361      386.85681      960.18531      0.99696118
     23000  -319.54528      59.204965     -378.75025      315.27046     -2830.5245      960.18531      0.99696118
     24000  -341.42406      46.451012     -387.87507      247.35479     -2277.3563      960.18531      0.99696118
     25000  -337.5298       55.807695     -393.3375       297.17977     -1255.8188      960.18531      0.99696118
     26000  -315.5142       56.906463     -372.42066      303.03078      281.32767      960.18531      0.99696118
     27000  -316.79465      55.6736       -372.46825      296.4657      -418.06863      960.18531      0.99696118
     28000  -336.84707      51.771621     -388.61869      275.68739     -591.88898      960.18531      0.99696118
     29000  -302.14513      64.39828      -366.54341      342.92521      2963.4095      960.18531      0.99696118
     30000  -323.02752      51.583804     -374.61132      274.68726     -1255.1155      960.18531      0.99696118
     31000  -329.47015      50.344086     -379.81423      268.08568      2487.0169      960.18531      0.99696118
     32000  -316.39178      57.184797     -373.57658      304.51293     -4001.4588      960.18531      0.99696118
     33000  -326.81528      56.412517     -383.22779      300.40048     -4442.4072      960.18531      0.99696118
     34000  -320.41558      62.821624     -383.2372       334.52941     -3066.429       960.18531      0.99696118
     35000  -316.19895      59.45564      -375.65459      316.60532     -2412.3532      960.18531      0.99696118
     36000  -326.71944      49.770597     -376.49004      265.03181      72.356558      960.18531      0.99696118
     37000  -326.7708       60.579862     -387.35067      322.59188     -3247.646       960.18531      0.99696118
     38000  -336.90478      51.211604     -388.11638      272.70527     -2079.6218      960.18531      0.99696118
     39000  -323.32018      53.981476     -377.30166      287.45503      302.35551      960.18531      0.99696118
     40000  -331.93227      49.922971     -381.85524      265.84321      1564.5768      960.18531      0.99696118
     41000  -325.23495      52.475933     -377.71088      279.43791     -973.89005      960.18531      0.99696118
     42000  -319.25345      53.516792     -372.77024      284.98055      1342.6083      960.18531      0.99696118
     43000  -327.59115      58.352192     -385.94334      310.72939      246.62288      960.18531      0.99696118
     44000  -331.42609      51.649877     -383.07596      275.0391       594.29217      960.18531      0.99696118
     45000  -327.58342      51.01514      -378.59856      271.65908     -3597.4237      960.18531      0.99696118
     46000  -330.9856       55.141243     -386.12685      293.63086      822.27404      960.18531      0.99696118
     47000  -321.82947      61.980976     -383.81045      330.0529      -1126.5677      960.18531      0.99696118
     48000  -308.48026      53.571032     -362.05129      285.26938     -3438.7257      960.18531      0.99696118
     49000  -329.67143      59.904862     -389.57629      318.99746      1250.6334      960.18531      0.99696118
     50000  -342.1172       56.002966     -398.12016      298.2196      -1607.0354      960.18531      0.99696118
     51000  -318.34759      58.537977     -376.88556      311.7187      -1121.4382      960.18531      0.99696118
     52000  -318.6211       59.15975      -377.78085      315.02969     -2320.9652      960.18531      0.99696118
     53000  -322.26935      53.889183     -376.15853      286.96356     -907.72457      960.18531      0.99696118
     54000  -337.41501      58.60248      -396.01749      312.06218      1115.8232      960.18531      0.99696118
     55000  -339.41031      54.766654     -394.17697      291.63615      1995.7056      960.18531      0.99696118
     56000  -328.24025      61.114622     -389.35487      325.43951      453.98262      960.18531      0.99696118
     57000  -311.54502      53.444342     -364.98937      284.59475     -1136.467       960.18531      0.99696118
     58000  -313.01115      53.505475     -366.51663      284.92028     -1607.3867      960.18531      0.99696118
     59000  -304.38317      61.129626     -365.51279      325.51941      4405.2517      960.18531      0.99696118
     60000  -326.41626      53.448234     -379.8645       284.61548     -4825.1841      960.18531      0.99696118
     61000  -328.30783      58.118421     -386.42626      309.48454     -2862.2837      960.18531      0.99696118
     62000  -340.36112      54.285909     -394.64703      289.07615      4169.2002      960.18531      0.99696118
     63000  -338.06364      50.655225     -388.71886      269.74251     -353.85439      960.18531      0.99696118
     64000  -324.20561      62.234207     -386.43981      331.40138      1095.7254      960.18531      0.99696118
     65000  -305.33722      65.807864     -371.14509      350.43134      760.55825      960.18531      0.99696118
     66000  -324.4489       49.475822     -373.92472      263.46211     -3409.7751      960.18531      0.99696118
     67000  -324.315        52.102007     -376.41701      277.44672     -2079.8129      960.18531      0.99696118
     68000  -332.53746      62.430191     -394.96765      332.44501     -1407.3767      960.18531      0.99696118
     69000  -351.3607       36.754309     -388.11501      195.71919     -1051.2962      960.18531      0.99696118
     70000  -322.2192       51.906982     -374.12619      276.4082      -1925.8658      960.18531      0.99696118
     71000  -330.99184      51.328772     -382.32061      273.3292      -1746.0032      960.18531      0.99696118
     72000  -323.57018      51.519314     -375.0895       274.34384      1499.8963      960.18531      0.99696118
     73000  -330.942        58.694702     -389.63671      312.55327      529.46275      960.18531      0.99696118
     74000  -325.26615      61.247447     -386.51359      326.14681      193.67217      960.18531      0.99696118
     75000  -334.03024      52.11786      -386.1481       277.53114     -479.78627      960.18531      0.99696118
     76000  -314.59341      48.321501     -362.91491      257.31527     -1530.2437      960.18531      0.99696118
     77000  -331.0452       62.038338     -393.08354      330.35836     -3699.8219      960.18531      0.99696118
     78000  -314.76042      66.810505     -381.57093      355.77047      483.96751      960.18531      0.99696118
     79000  -326.72193      53.361822     -380.08375      284.15532     -2639.1329      960.18531      0.99696118
     80000  -313.04584      58.763605     -371.80945      312.92019     -916.12837      960.18531      0.99696118
     81000  -310.08338      54.956782     -365.04017      292.6486      -1563.2824      960.18531      0.99696118
     82000  -323.61377      57.492151     -381.10592      306.14961     -102.08988      960.18531      0.99696118
     83000  -339.70303      54.495853     -394.19888      290.19412     -3532.7787      960.18531      0.99696118
     84000  -333.6587       53.9258       -387.5845       287.15855     -393.34896      960.18531      0.99696118
     85000  -337.93582      58.844008     -396.77983      313.34833     -2427.3243      960.18531      0.99696118
     86000  -325.22255      56.963115     -382.18566      303.33246      1589.5205      960.18531      0.99696118
     87000  -335.49017      50.943504     -386.43367      271.27762     -843.96842      960.18531      0.99696118
     88000  -326.93034      55.715235     -382.64557      296.68741      883.68182      960.18531      0.99696118
     89000  -305.80303      62.061715     -367.86475      330.48285      401.32643      960.18531      0.99696118
     90000  -309.94001      52.108007     -362.04801      277.47867     -695.90392      960.18531      0.99696118
     91000  -321.29352      57.298509     -378.59202      305.11845     -1803.6688      960.18531      0.99696118
     92000  -328.0809       69.942714     -398.02361      372.4497      -131.50426      960.18531      0.99696118
     93000  -333.72086      55.940486     -389.66135      297.88689      1148.3528      960.18531      0.99696118
     94000  -339.24148      52.39508      -391.63656      279.00736     -2424.1394      960.18531      0.99696118
     95000  -316.66952      60.205645     -376.87517      320.59915     -1568.4731      960.18531      0.99696118
     96000  -305.36053      55.799998     -361.16053      297.13878     -145.04779      960.18531      0.99696118
     97000  -316.38213      55.93384      -372.31597      297.85149      890.05293      960.18531      0.99696118
     98000  -305.91051      64.388029     -370.29854      342.87063      3519.8422      960.18531      0.99696118
     99000  -324.54677      56.511514     -381.05828      300.92765      713.21487      960.18531      0.99696118
    100000  -326.23125      55.563332     -381.79459      295.87851      3166.1459      960.18531      0.99696118
    101000  -318.75096      51.627364     -370.37832      274.91922      1336.6657      960.18531      0.99696118
    102000  -333.8133       42.224506     -376.03781      224.84836     -408.73413      960.18531      0.99696118
    103000  -322.344        55.896743     -378.24074      297.65395     -2250.4643      960.18531      0.99696118
    104000  -317.92667      58.111727     -376.03839      309.44889     -2135.7387      960.18531      0.99696118
    105000  -325.27148      51.033147     -376.30463      271.75497     -3256.9373      960.18531      0.99696118
    106000  -323.01866      48.71567      -371.73433      259.41425      596.2832       960.18531      0.99696118
    107000  -310.3468       59.846843     -370.19364      318.6885      -2312.7532      960.18531      0.99696118
    108000  -331.36893      52.410819     -383.77975      279.09117     -204.34428      960.18531      0.99696118
    109000  -317.27783      51.149229     -368.42706      272.37311     -1246.9768      960.18531      0.99696118
    110000  -324.48068      49.039674     -373.52036      261.13959      632.40018      960.18531      0.99696118
    111000  -325.7308       57.708705     -383.4395       307.30277      99.60612       960.18531      0.99696118
    112000  -319.77316      57.16724      -376.9404       304.41943      1150.2449      960.18531      0.99696118
    113000  -310.38825      55.37789      -365.76614      294.89103      1590.9147      960.18531      0.99696118
    114000  -322.21241      57.742389     -379.9548       307.48214     -858.56342      960.18531      0.99696118
    115000  -332.75312      52.417782     -385.1709       279.12825      303.38412      960.18531      0.99696118
    116000  -328.6296       48.586285     -377.21589      258.72527     -1907.8183      960.18531      0.99696118
    117000  -323.50842      51.149565     -374.65799      272.37491     -4290.1596      960.18531      0.99696118
    118000  -303.1641       57.280664     -360.44477      305.02343      1321.053       960.18531      0.99696118
    119000  -320.11395      58.442369     -378.55632      311.20958     -2192.1631      960.18531      0.99696118
    120000  -325.09826      63.480564     -388.57882      338.03831     -3559.8131      960.18531      0.99696118
    121000  -303.56158      66.956192     -370.51778      356.54627     -671.14192      960.18531      0.99696118
    122000  -322.29642      58.589454     -380.88588      311.99282      2103.4906      960.18531      0.99696118
    123000  -330.89695      61.053902     -391.95086      325.11617     -729.97369      960.18531      0.99696118
    124000  -319.9176       56.15455      -376.07215      299.02679      2541.9768      960.18531      0.99696118
    125000  -324.19803      56.030637     -380.22867      298.36695      585.8327       960.18531      0.99696118
    126000  -318.22688      59.098142     -377.32502      314.70162     -1536.6096      960.18531      0.99696118
    127000  -319.3009       62.280316     -381.58122      331.64691     -1493.2309      960.18531      0.99696118
    128000  -300.62155      62.828719     -363.45027      334.56719     -1775.6778      960.18531      0.99696118
    129000  -314.98277      62.427034     -377.4098       332.4282       154.70504      960.18531      0.99696118
    130000  -304.13985      55.705403     -359.84526      296.63505      367.67829      960.18531      0.99696118
    131000  -324.06403      55.901954     -379.96598      297.6817      -2589.2032      960.18531      0.99696118
    132000  -308.659        63.623828     -372.28283      338.8012       1599.3059      960.18531      0.99696118
    133000  -335.57542      61.588041     -397.16346      327.9605      -3742.5781      960.18531      0.99696118
    134000  -328.24053      64.512825     -392.75336      343.53517     -1825.0694      960.18531      0.99696118
    135000  -316.58349      55.496289     -372.07978      295.52151      212.27096      960.18531      0.99696118
    136000  -299.36895      64.466481     -363.83543      343.28839     -2315.6699      960.18531      0.99696118
    137000  -326.91314      54.632038     -381.54518      290.91931     -1946.909       960.18531      0.99696118
    138000  -311.64466      60.27887      -371.92353      320.98907     -2832.8424      960.18531      0.99696118
    139000  -331.5729       61.483502     -393.0564       327.40382     -2393.2442      960.18531      0.99696118
    140000  -320.0149       59.917461     -379.93236      319.06455      2035.0931      960.18531      0.99696118
    141000  -350.22742      45.18787      -395.41529      240.62847     -2788.0558      960.18531      0.99696118
    142000  -320.49755      56.294753     -376.79231      299.77338     -3169.2606      960.18531      0.99696118
    143000  -306.47085      62.031041     -368.50189      330.31951     -4070.3641      960.18531      0.99696118
    144000  -320.31059      60.972023     -381.28261      324.68016      1460.1395      960.18531      0.99696118
    145000  -312.04198      68.653203     -380.69518      365.58296     -1105.0022      960.18531      0.99696118
    146000  -309.65658      57.354506     -367.01108      305.41664      176.99309      960.18531      0.99696118
    147000  -317.47913      56.84635      -374.32548      302.71067     -2180.3419      960.18531      0.99696118
    148000  -325.97852      55.041087     -381.0196       293.09752      1229.7369      960.18531      0.99696118
    149000  -335.88754      53.102824     -388.99036      282.77614      4167.6287      960.18531      0.99696118
    150000  -334.56684      49.189748     -383.75659      261.93874     -1218.4954      960.18531      0.99696118
    151000  -304.71697      59.777584     -364.49455      318.31969      1114.0621      960.18531      0.99696118
    152000  -336.25726      51.164096     -387.42136      272.45228     -170.80774      960.18531      0.99696118
    153000  -329.96986      51.136216     -381.10607      272.30382     -1330.4242      960.18531      0.99696118
    154000  -314.43874      64.51582      -378.95456      343.55112      1722.0932      960.18531      0.99696118
    155000  -325.13837      49.390685     -374.52905      263.00875     -110.55859      960.18531      0.99696118
    156000  -328.35903      59.313106     -387.67213      315.84632      201.85144      960.18531      0.99696118
    157000  -313.80227      54.053074     -367.85534      287.83629     -576.27915      960.18531      0.99696118
    158000  -321.57734      53.281314     -374.85866      283.72662      1567.15        960.18531      0.99696118
    159000  -325.60772      59.631257     -385.23898      317.54049     -1938.7206      960.18531      0.99696118
    160000  -342.33485      53.479786     -395.81464      284.78349     -620.25243      960.18531      0.99696118
    161000  -326.40172      54.330607     -380.73233      289.31417     -2659.5629      960.18531      0.99696118
    162000  -336.0979       52.019767     -388.11767      277.00879      3679.9259      960.18531      0.99696118
    163000  -306.13268      63.084285     -369.21697      335.9281      -366.03193      960.18531      0.99696118
    164000  -335.01815      49.956533     -384.97468      266.02193      509.65531      960.18531      0.99696118
    165000  -310.05274      57.358114     -367.41085      305.43585     -1350.984       960.18531      0.99696118
    166000  -330.72979      45.904493     -376.63428      244.44454     -3567.6476      960.18531      0.99696118
    167000  -351.42494      47.378203     -398.80314      252.29215     -1398.668       960.18531      0.99696118
    168000  -334.0183       63.755004     -397.77331      339.49972      937.65575      960.18531      0.99696118
    169000  -352.36587      50.40117      -402.76704      268.38965     -4952.9943      960.18531      0.99696118
    170000  -317.13672      62.389851     -379.52657      332.23019     -434.72782      960.18531      0.99696118
    171000  -331.0476       55.131996     -386.1796       293.58162     -3881.0691      960.18531      0.99696118
    172000  -310.55514      59.977994     -370.53314      319.38689      2404.6441      960.18531      0.99696118
    173000  -351.64145      50.802066     -402.44352      270.52445     -610.10645      960.18531      0.99696118
    174000  -326.8017       64.005861     -390.80756      340.83556     -2363.2693      960.18531      0.99696118
    175000  -334.63186      43.385659     -378.01752      231.03158     -2947.0902      960.18531      0.99696118
    176000  -320.68541      53.662497     -374.34791      285.75644      206.73581      960.18531      0.99696118
    177000  -346.94472      45.785424     -392.73015      243.81049     -544.16862      960.18531      0.99696118
    178000  -311.99942      57.814823     -369.81424      307.86786      279.54825      960.18531      0.99696118
    179000  -339.27743      50.072701     -389.35013      266.64053     -1733.0038      960.18531      0.99696118
    180000  -329.45887      52.449417     -381.90829      279.29671     -3306.8358      960.18531      0.99696118
    181000  -319.90753      58.684933     -378.59246      312.50125      68.473669      960.18531      0.99696118
    182000  -327.38185      50.603102     -377.98495      269.46495     -410.26589      960.18531      0.99696118
    183000  -315.20888      62.129656     -377.33854      330.84464      41.405627      960.18531      0.99696118
    184000  -332.62395      59.682        -392.30595      317.8107      -2552.0588      960.18531      0.99696118
    185000  -335.42355      55.930351     -391.35391      297.83292      2536.5283      960.18531      0.99696118
    186000  -319.75201      66.454512     -386.20652      353.87479     -1006.0566      960.18531      0.99696118
    187000  -335.9467       58.87979      -394.82649      313.53888     -1955.4669      960.18531      0.99696118
    188000  -319.23903      63.79653      -383.03556      339.72085      2399.2569      960.18531      0.99696118
    189000  -317.1419       60.884859     -378.02676      324.21601      2601.9709      960.18531      0.99696118
    190000  -339.78337      54.32725      -394.11062      289.29629     -2385.1836      960.18531      0.99696118
    191000  -326.81824      57.611784     -384.43003      306.78666     -2175.9951      960.18531      0.99696118
    192000  -332.85584      51.99975      -384.85559      276.9022       2213.8349      960.18531      0.99696118
    193000  -316.3965       63.450973     -379.84747      337.88074      803.48059      960.18531      0.99696118
    194000  -329.25365      41.974697     -371.22835      223.51811     -1449.3781      960.18531      0.99696118
    195000  -317.77548      59.135794     -376.91128      314.90212     -1200.412       960.18531      0.99696118
    196000  -322.13173      54.857862     -376.98959      292.12184     -2866.8527      960.18531      0.99696118
    197000  -328.00345      59.638111     -387.64156      317.57699     -2187.2694      960.18531      0.99696118
    198000  -340.04927      55.616114     -395.66538      296.15958     -145.11599      960.18531      0.99696118
    199000  -350.18484      51.995351     -402.18019      276.87877     -359.06505      960.18531      0.99696118
    200000  -319.85274      59.628195     -379.48093      317.52419     -2983.3088      960.18531      0.99696118
    201000  -332.53212      52.941756     -385.47388      281.91845     -232.82954      960.18531      0.99696118
    202000  -337.23293      42.583965     -379.81689      226.76251     -1562.487       960.18531      0.99696118
    203000  -336.55128      48.555531     -385.10681      258.5615       798.19549      960.18531      0.99696118
    204000  -331.11148      55.966527     -387.07801      298.02556     -1957.7198      960.18531      0.99696118
    205000  -344.70293      60.652899     -405.35583      322.9808      -686.38025      960.18531      0.99696118
    206000  -324.51306      53.328685     -377.84174      283.97887     -4269.4808      960.18531      0.99696118
    207000  -320.74996      47.942106     -368.69207      255.29497      1545.9378      960.18531      0.99696118
    208000  -328.29145      53.434944     -381.72639      284.54471     -4176.9493      960.18531      0.99696118
    209000  -336.32769      51.658995     -387.98669      275.08765      397.02592      960.18531      0.99696118
    210000  -323.96529      53.846923     -377.81222      286.73852      4547.6844      960.18531      0.99696118
    211000  -335.9718       48.492387     -384.46418      258.22525      395.86399      960.18531      0.99696118
    212000  -335.35486      50.153999     -385.50886      267.07345     -729.02709      960.18531      0.99696118
    213000  -305.45788      56.774947     -362.23282      302.33045      21.851915      960.18531      0.99696118
    214000  -344.56732      49.703535     -394.27085      264.6747       1168.6003      960.18531      0.99696118
    215000  -328.79391      44.204027     -372.99794      235.38944     -2155.9083      960.18531      0.99696118
    216000  -329.74557      54.639345     -384.38492      290.95822      2368.5209      960.18531      0.99696118
    217000  -322.24465      55.426474     -377.67112      295.14974     -537.64613      960.18531      0.99696118
    218000  -314.75539      64.682037     -379.43742      344.43624      3733.9494      960.18531      0.99696118
    219000  -325.54234      51.163904     -376.70625      272.45126     -78.175927      960.18531      0.99696118
    220000  -321.07123      49.000047     -370.07127      260.92858     -2294.8562      960.18531      0.99696118
    221000  -322.51384      48.773561     -371.2874       259.72252      297.69308      960.18531      0.99696118
    222000  -314.63723      61.139546     -375.77677      325.57223     -38.668541      960.18531      0.99696118
    223000  -334.46454      50.655995     -385.12054      269.74661      504.39366      960.18531      0.99696118
    224000  -333.37655      56.578352     -389.9549       301.28356      745.99875      960.18531      0.99696118
    225000  -324.08402      56.096704     -380.18072      298.71876      2409.9797      960.18531      0.99696118
    226000  -332.35822      53.763346     -386.12157      286.29347      1377.4024      960.18531      0.99696118
    227000  -346.74603      51.507946     -398.25397      274.28331      555.74818      960.18531      0.99696118
    228000  -326.81909      54.47752      -381.29661      290.09649     -1781.4789      960.18531      0.99696118
    229000  -329.35539      54.003238     -383.35863      287.57091     -3866.2554      960.18531      0.99696118
    230000  -329.15667      46.912397     -376.06907      249.8117      -235.38251      960.18531      0.99696118
    231000  -326.19418      59.698058     -385.89224      317.89621      599.32556      960.18531      0.99696118
    232000  -327.14628      69.650045     -396.79633      370.89122      1010.4678      960.18531      0.99696118
    233000  -335.72972      59.268515     -394.99824      315.60887      1062.8949      960.18531      0.99696118
    234000  -322.12467      69.613518     -391.73819      370.69671     -1941.485       960.18531      0.99696118
    235000  -340.74896      52.89518      -393.64414      281.67042      42.463205      960.18531      0.99696118
    236000  -309.47553      66.818334     -376.29386      355.81217     -899.99027      960.18531      0.99696118
    237000  -319.08286      71.273216     -390.35607      379.53471      2629.3894      960.18531      0.99696118
    238000  -320.24561      42.316142     -362.56175      225.33633     -337.55425      960.18531      0.99696118
    239000  -313.30518      48.256544     -361.56173      256.96937      2345.4804      960.18531      0.99696118
    240000  -327.65165      48.513731     -376.16538      258.33891      3321.942       960.18531      0.99696118
    241000  -341.75919      52.159268     -393.91846      277.75164     -2180.9137      960.18531      0.99696118
    242000  -337.4903       53.096356     -390.58666      282.7417       1540.6421      960.18531      0.99696118
    243000  -326.76643      52.724879     -379.49131      280.76356     -3654.0402      960.18531      0.99696118
    244000  -335.64669      56.332569     -391.97926      299.97475     -2499.6206      960.18531      0.99696118
    245000  -327.75609      55.402081     -383.15817      295.01984     -346.61718      960.18531      0.99696118
    246000  -322.46312      56.941844     -379.40497      303.21919      2737.4294      960.18531      0.99696118
    247000  -323.0414       65.889178     -388.93058      350.86435     -1710.511       960.18531      0.99696118
    248000  -317.02964      56.317227     -373.34687      299.89306      1059.303       960.18531      0.99696118
    249000  -322.73439      60.246807     -382.9812       320.81834     -2955.4952      960.18531      0.99696118
    250000  -318.74404      55.517462     -374.2615       295.63425     -3448.856       960.18531      0.99696118
    251000  -319.61744      55.840592     -375.45803      297.35494     -974.3156       960.18531      0.99696118
    252000  -325.26576      52.704535     -377.9703       280.65522     -5505.4244      960.18531      0.99696118
    253000  -320.67194      62.011154     -382.6831       330.2136      -4270.7457      960.18531      0.99696118
    254000  -333.90814      52.836081     -386.74422      281.35572     -918.62308      960.18531      0.99696118
    255000  -327.46266      54.943394     -382.40606      292.5773      -833.98655      960.18531      0.99696118
    256000  -319.33023      55.317954     -374.64818      294.57186      1263.8626      960.18531      0.99696118
    257000  -319.19509      56.757875     -375.95296      302.23954     -360.44151      960.18531      0.99696118
    258000  -310.54406      62.091979     -372.63604      330.644       -584.06678      960.18531      0.99696118
    259000  -336.57282      49.401833     -385.97465      263.06811     -2457.116       960.18531      0.99696118
    260000  -321.28133      52.787882     -374.06921      281.09905      3019.6181      960.18531      0.99696118
    261000  -311.37228      57.496137     -368.86842      306.17083     -2620.7174      960.18531      0.99696118
    262000  -302.13771      67.463134     -369.60085      359.24577     -4507.4169      960.18531      0.99696118
    263000  -317.48893      51.147926     -368.63686      272.36618      112.81754      960.18531      0.99696118
    264000  -322.57634      59.16388      -381.74022      315.05168      2931.9724      960.18531      0.99696118
    265000  -314.91466      60.406299     -375.32096      321.66764      1048.4289      960.18531      0.99696118
    266000  -323.18913      51.187215     -374.37635      272.57539      6917.0715      960.18531      0.99696118
    267000  -320.29227      60.200138     -380.49241      320.56982      2841.8795      960.18531      0.99696118
    268000  -342.28798      56.008747     -398.29672      298.25038     -1408.2514      960.18531      0.99696118
    269000  -318.70636      59.302344     -378.0087       315.78901     -1788.3468      960.18531      0.99696118
    270000  -318.52951      54.122495     -372.652        288.20596     -3544.4123      960.18531      0.99696118
    271000  -312.96516      48.568872     -361.53403      258.63254     -1240.8096      960.18531      0.99696118
    272000  -336.65764      56.215489     -392.87312      299.35129      1258.1257      960.18531      0.99696118
    273000  -325.26461      57.141948     -382.40656      304.28475     -3071.3261      960.18531      0.99696118
    274000  -331.92147      59.47929      -391.40076      316.73126     -1554.0555      960.18531      0.99696118
    275000  -327.1179       55.718428     -382.83633      296.70441     -1227.0489      960.18531      0.99696118
    276000  -332.74917      49.678208     -382.42738      264.53983     -1408.5781      960.18531      0.99696118
    277000  -323.36387      47.89246      -371.25633      255.0306      -2427.9641      960.18531      0.99696118
    278000  -305.09471      68.68658      -373.78129      365.7607      -1397.0769      960.18531      0.99696118
    279000  -323.54786      60.41482      -383.96268      321.71302     -2012.6828      960.18531      0.99696118
    280000  -315.17614      45.820455     -360.99659      243.99703      4380.707       960.18531      0.99696118
    281000  -335.73209      51.455749     -387.18784      274.00536      3557.839       960.18531      0.99696118
    282000  -321.56626      53.489591     -375.05585      284.8357      -205.80935      960.18531      0.99696118
    283000  -318.67645      58.24018      -376.91663      310.13291     -96.417807      960.18531      0.99696118
    284000  -316.17226      55.157323     -371.32959      293.71649      2484.6537      960.18531      0.99696118
    285000  -346.8958       41.386196     -388.282        220.3843      -2978.1699      960.18531      0.99696118
    286000  -308.14053      61.165489     -369.30602      325.71038      1072.1892      960.18531      0.99696118
    287000  -327.60796      60.192337     -387.8003       320.52828     -175.7273       960.18531      0.99696118
    288000  -327.12332      49.451845     -376.57516      263.33443      781.11234      960.18531      0.99696118
    289000  -305.58948      78.180129     -383.76961      416.3145       3861.3005      960.18531      0.99696118
    290000  -317.92275      51.727658     -369.65041      275.45329      6319.8115      960.18531      0.99696118
    291000  -322.46377      49.010523     -371.47429      260.98436      1077.1904      960.18531      0.99696118
    292000  -308.73021      56.457357     -365.18756      300.63926      1315.4511      960.18531      0.99696118
    293000  -341.18174      51.875408     -393.05715      276.24007      648.79019      960.18531      0.99696118
    294000  -327.58197      55.18452      -382.76649      293.86131     -783.42142      960.18531      0.99696118
    295000  -320.67262      60.368108     -381.04073      321.46427      1900.641       960.18531      0.99696118
    296000  -327.95024      55.740603     -383.69084      296.8225      -3895.1008      960.18531      0.99696118
    297000  -333.72379      54.839944     -388.56373      292.02642     -1297.2118      960.18531      0.99696118
    298000  -303.50143      62.67032      -366.17175      333.72371      1632.7333      960.18531      0.99696118
    299000  -335.14305      51.09883      -386.24188      272.10474     -687.99288      960.18531      0.99696118
    300000  -324.22416      55.402881     -379.62704      295.0241      -1957.1724      960.18531      0.99696118
    301000  -315.76157      58.695519     -374.45709      312.55762      1965.8106      960.18531      0.99696118
    302000  -325.34126      52.184178     -377.52544      277.88429      10.291587      960.18531      0.99696118
    303000  -310.47693      57.218907     -367.69584      304.69456      1781.8317      960.18531      0.99696118
    304000  -333.25685      51.594483     -384.85134      274.74412      454.97072      960.18531      0.99696118
    305000  -320.79235      66.096012     -386.88836      351.96575     -1087.2934      960.18531      0.99696118
    306000  -314.19501      68.154799     -382.34981      362.92893      1619.5209      960.18531      0.99696118
    307000  -320.14911      52.248634     -372.39774      278.22752     -998.96533      960.18531      0.99696118
    308000  -313.60595      54.57615      -368.1821       290.6217       845.57522      960.18531      0.99696118
    309000  -320.26954      47.581533     -367.85108      253.37489     -1479.4977      960.18531      0.99696118
    310000  -313.73762      65.377622     -379.11524      348.14028     -988.00216      960.18531      0.99696118
    311000  -313.09211      54.148591     -367.24071      288.34492     -373.38888      960.18531      0.99696118
    312000  -316.79493      44.047293     -360.84223      234.55482     -3165.1855      960.18531      0.99696118
    313000  -315.53339      51.227016     -366.7604       272.78734     -1105.42        960.18531      0.99696118
    314000  -311.75489      61.088583     -372.84348      325.30085     -3292.1323      960.18531      0.99696118
    315000  -329.86366      51.518338     -381.382        274.33865     -1572.368       960.18531      0.99696118
    316000  -330.0371       54.23936      -384.27646      288.82827     -1380.8466      960.18531      0.99696118
    317000  -324.90014      59.717762     -384.61791      318.00114     -920.88169      960.18531      0.99696118
    318000  -341.39037      53.084601     -394.47497      282.6791       325.84784      960.18531      0.99696118
    319000  -329.13448      63.996817     -393.1313       340.7874       2162.3039      960.18531      0.99696118
    320000  -343.70364      54.062136     -397.76577      287.88455     -2082.7223      960.18531      0.99696118
    321000  -330.03304      56.32434      -386.35738      299.93094     -209.42814      960.18531      0.99696118
    322000  -337.68193      48.656581     -386.33851      259.0996      -691.42926      960.18531      0.99696118
    323000  -315.05814      65.477301     -380.53544      348.67107     -241.16045      960.18531      0.99696118
    324000  -335.47186      54.596882     -390.06874      290.73211      1436.787       960.18531      0.99696118
    325000  -320.57218      61.503434     -382.07562      327.50996     -2989.9233      960.18531      0.99696118
    326000  -320.60111      57.493063     -378.09417      306.15446     -1205.3957      960.18531      0.99696118
    327000  -316.17111      59.532148     -375.70326      317.01273      843.45092      960.18531      0.99696118
    328000  -316.11324      57.370266     -373.48351      305.50056      633.47916      960.18531      0.99696118
    329000  -321.61288      60.469527     -382.08241      322.00434      862.40179      960.18531      0.99696118
    330000  -312.74989      64.181895     -376.93178      341.77295     -639.01069      960.18531      0.99696118
    331000  -330.75351      53.888428     -384.64194      286.95954     -1100.4655      960.18531      0.99696118
    332000  -342.16198      49.515447     -391.67743      263.67311     -5573.6415      960.18531      0.99696118
    333000  -316.68973      65.404801     -382.09454      348.28501      2028.6095      960.18531      0.99696118
    334000  -309.34599      52.982828     -362.32882      282.13716      1667.5263      960.18531      0.99696118
    335000  -334.0682       53.332371     -387.40057      283.99849     -1901.7227      960.18531      0.99696118
    336000  -326.02721      57.199282     -383.2265       304.59006      346.95092      960.18531      0.99696118
    337000  -325.207        52.979044     -378.18604      282.11701      2691.1017      960.18531      0.99696118
    338000  -297.63802      64.090937     -361.72895      341.28859     -704.76065      960.18531      0.99696118
    339000  -317.15202      60.219945     -377.37197      320.6753      -3692.8485      960.18531      0.99696118
    340000  -310.51723      50.187587     -360.70482      267.25231     -1896.3003      960.18531      0.99696118
    341000  -326.44997      46.428985     -372.87896      247.23749     -929.44465      960.18531      0.99696118
    342000  -326.33804      55.067285     -381.40533      293.23703     -956.76538      960.18531      0.99696118
    343000  -332.85352      44.298392     -377.15192      235.89194     -2507.271       960.18531      0.99696118
    344000  -331.02651      50.676723     -381.70324      269.85699      2634.6232      960.18531      0.99696118
    345000  -316.86767      60.171945     -377.03961      320.41969     -2726.6002      960.18531      0.99696118
    346000  -302.85961      63.906708     -366.76632      340.30756     -3522.4843      960.18531      0.99696118
    347000  -327.9776       55.095439     -383.07304      293.38695      1479.6903      960.18531      0.99696118
    348000  -330.31399      52.846063     -383.16005      281.40887      657.21678      960.18531      0.99696118
    349000  -330.55743      50.937249     -381.49467      271.24431     -3037.171       960.18531      0.99696118
    350000  -332.48348      52.395127     -384.87861      279.00761     -2080.8743      960.18531      0.99696118
    351000  -341.13498      50.755523     -391.8905       270.27661      1057.9186      960.18531      0.99696118
    352000  -324.6307       60.140447     -384.77115      320.25196      3166.4219      960.18531      0.99696118
    353000  -315.31824      60.637627     -375.95587      322.89948      2069.842       960.18531      0.99696118
    354000  -337.82791      49.936115     -387.76403      265.9132      -2449.4241      960.18531      0.99696118
    355000  -327.83649      49.696225     -377.53271      264.63577      444.97         960.18531      0.99696118
    356000  -328.44788      62.616717     -391.0646       333.43827     -2618.2251      960.18531      0.99696118
    357000  -309.53297      56.656006     -366.18898      301.69708      411.94444      960.18531      0.99696118
    358000  -321.26294      59.878474     -381.14142      318.85694     -554.61706      960.18531      0.99696118
    359000  -326.76273      63.651068     -390.41379      338.94626      2217.9032      960.18531      0.99696118
    360000  -318.52232      60.177413     -378.69973      320.44881     -856.41021      960.18531      0.99696118
    361000  -318.67505      57.917747     -376.5928       308.41593      1690.7727      960.18531      0.99696118
    362000  -309.08426      56.995298     -366.07956      303.50383     -1621.3548      960.18531      0.99696118
    363000  -320.97044      56.18127      -377.15171      299.16908     -3820.8358      960.18531      0.99696118
    364000  -307.89453      64.881708     -372.77623      345.4995      -426.24664      960.18531      0.99696118
    365000  -344.20451      48.58905      -392.79356      258.73999      4914.8372      960.18531      0.99696118
    366000  -332.05123      54.302574     -386.35381      289.16489     -174.91311      960.18531      0.99696118
    367000  -327.69319      55.106916     -382.80011      293.44807     -2409.8911      960.18531      0.99696118
    368000  -323.58752      59.588878     -383.1764       317.31482     -605.76958      960.18531      0.99696118
    369000  -311.37853      56.002984     -367.38152      298.21969      2393.09        960.18531      0.99696118
    370000  -336.34145      48.583484     -384.92493      258.71035     -2277.8381      960.18531      0.99696118
    371000  -326.20425      64.64012      -390.84437      344.21303     -399.31756      960.18531      0.99696118
    372000  -324.81289      52.465999     -377.27889      279.38501      3438.517       960.18531      0.99696118
    373000  -329.32083      55.201623     -384.52245      293.95239     -205.53205      960.18531      0.99696118
    374000  -327.05497      51.901598     -378.95656      276.37953     -1813.6238      960.18531      0.99696118
    375000  -331.40911      56.318165     -387.72727      299.89805     -2911.9929      960.18531      0.99696118
    376000  -322.47494      57.206166     -379.6811       304.62672      942.73143      960.18531      0.99696118
    377000  -316.23721      58.609376     -374.84659      312.09891     -1045.29        960.18531      0.99696118
    378000  -303.6993       56.418845     -360.11815      300.43418     -481.27469      960.18531      0.99696118
    379000  -343.96753      42.649617     -386.61715      227.1121      -902.32368      960.18531      0.99696118
    380000  -320.22287      56.097852     -376.32073      298.72487      2883.0304      960.18531      0.99696118
    381000  -345.95323      43.059936     -389.01316      229.29708     -2095.684       960.18531      0.99696118
    382000  -324.06522      56.322396     -380.38761      299.92058     -343.69628      960.18531      0.99696118
    383000  -320.08223      51.906946     -371.98918      276.40801     -819.71083      960.18531      0.99696118
    384000  -336.34734      52.880613     -389.22795      281.59285      1254.8378      960.18531      0.99696118
    385000  -325.03953      64.32613      -389.36566      342.54101      214.2557       960.18531      0.99696118
    386000  -316.40851      53.827331     -370.23584      286.63419     -1387.3161      960.18531      0.99696118
    387000  -322.8156       46.583749     -369.39935      248.06163     -936.58893      960.18531      0.99696118
    388000  -317.29539      59.705079     -377.00047      317.9336       1980.4382      960.18531      0.99696118
    389000  -328.75696      56.060347     -384.81731      298.52516     -2645.7877      960.18531      0.99696118
    390000  -326.63793      51.267104     -377.90503      273.00081     -1987.6712      960.18531      0.99696118
    391000  -333.75047      51.632909     -385.38338      274.94875     -3103.6687      960.18531      0.99696118
    392000  -303.91671      63.221657     -367.13837      336.65962     -789.38074      960.18531      0.99696118
    393000  -330.14665      52.075641     -382.22229      277.30632      407.09975      960.18531      0.99696118
    394000  -317.51373      66.721495     -384.23522      355.29649      2453.8803      960.18531      0.99696118
    395000  -307.2518       69.405748     -376.65755      369.59032      1682.3125      960.18531      0.99696118
    396000  -341.67137      42.081409     -383.75278      224.08636     -479.56923      960.18531      0.99696118
    397000  -324.36425      63.677954     -388.0422       339.08943      974.635        960.18531      0.99696118
    398000  -303.81413      64.293564     -368.10769      342.36759     -1385.2773      960.18531      0.99696118
    399000  -300.6266       60.471918     -361.09852      322.01707     -722.32888      960.18531      0.99696118
    400000  -318.42017      55.442696     -373.86286      295.23612     -2324.9598      960.18531      0.99696118
    401000  -329.40471      50.744852     -380.14956      270.21978     -3972.2792      960.18531      0.99696118
    402000  -334.42178      50.302349     -384.72413      267.86342     -155.39188      960.18531      0.99696118
    403000  -323.75761      57.566904     -381.32451      306.54767     -3838.2989      960.18531      0.99696118
    404000  -334.7992       45.961753     -380.76095      244.74945     -1601.1728      960.18531      0.99696118
    405000  -316.18662      53.878329     -370.06495      286.90576      2316.2965      960.18531      0.99696118
    406000  -328.40075      45.56345      -373.9642       242.62846     -2762.2394      960.18531      0.99696118
    407000  -318.10139      57.738834     -375.84022      307.46321      2716.8026      960.18531      0.99696118
    408000  -325.71066      49.822346     -375.533        265.30737     -1007.5752      960.18531      0.99696118
    409000  -336.15903      53.22715      -389.38618      283.43819     -742.61181      960.18531      0.99696118
    410000  -304.42574      64.300226     -368.72597      342.40307     -794.90741      960.18531      0.99696118
    411000  -338.92096      61.269347     -400.19031      326.26343      3093.9883      960.18531      0.99696118
    412000  -319.93792      55.92441      -375.86233      297.80128     -923.43116      960.18531      0.99696118
    413000  -328.25512      59.755131     -388.01025      318.20013     -1520.1471      960.18531      0.99696118
    414000  -332.74427      48.646591     -381.39086      259.0464       455.07962      960.18531      0.99696118
    415000  -344.12853      43.215202     -387.34373      230.12389      2001.3053      960.18531      0.99696118
    416000  -329.61763      50.658836     -380.27646      269.76174     -1976.2577      960.18531      0.99696118
    417000  -329.9457       51.53717      -381.48286      274.43893     -2936.5973      960.18531      0.99696118
    418000  -323.5979       59.033495     -382.63139      314.35737      774.23689      960.18531      0.99696118
    419000  -319.97445      56.016233     -375.99068      298.29024     -2930.6471      960.18531      0.99696118
    420000  -312.13015      53.965404     -366.09555      287.36944     -2739.7         960.18531      0.99696118
    421000  -332.46313      51.010159     -383.47329      271.63256     -1667.795       960.18531      0.99696118
    422000  -324.42903      59.282804     -383.71184      315.68496     -384.88556      960.18531      0.99696118
    423000  -327.62617      54.542432     -382.1686       290.44216      6374.3916      960.18531      0.99696118
    424000  -342.84042      44.477946     -387.31836      236.84808     -4060.8485      960.18531      0.99696118
    425000  -332.49374      51.256177     -383.74991      272.94262      655.35969      960.18531      0.99696118
    426000  -318.8581       45.587183     -364.44528      242.75484     -1809.1655      960.18531      0.99696118
    427000  -319.40647      56.10101      -375.50748      298.74169      459.5794       960.18531      0.99696118
    428000  -322.30013      60.833619     -383.13374      323.94315     -2487.756       960.18531      0.99696118
    429000  -343.9031       50.596426     -394.49952      269.4294       2335.6242      960.18531      0.99696118
    430000  -306.62152      56.248764     -362.87028      299.52849     -886.29816      960.18531      0.99696118
    431000  -333.84749      53.923772     -387.77126      287.14775     -882.63358      960.18531      0.99696118
    432000  -325.51555      57.804732     -383.32029      307.81412      3151.0261      960.18531      0.99696118
    433000  -318.8401       52.10706      -370.94716      277.47363      0.23499466     960.18531      0.99696118
    434000  -328.00218      58.431543     -386.43373      311.15193      3939.617       960.18531      0.99696118
    435000  -324.90146      58.38122      -383.28268      310.88396     -588.0958       960.18531      0.99696118
    436000  -320.51375      57.879848     -378.3936       308.21412     -2340.1882      960.18531      0.99696118
    437000  -328.02608      51.519709     -379.54578      274.34595     -631.24037      960.18531      0.99696118
    438000  -318.63786      49.201108     -367.83897      261.99924     -1369.663       960.18531      0.99696118
    439000  -331.84467      59.42405      -391.26872      316.4371      -1465.3108      960.18531      0.99696118
    440000  -312.95221      63.012878     -375.96509      335.54785      1668.1741      960.18531      0.99696118
    441000  -321.97812      56.255608     -378.23373      299.56493      1815.6825      960.18531      0.99696118
    442000  -318.83756      55.647367     -374.48493      296.326       -3510.5174      960.18531      0.99696118
    443000  -321.98781      52.236055     -374.22386      278.16054      442.16209      960.18531      0.99696118
    444000  -345.25832      54.746415     -400.00474      291.52838      388.0567       960.18531      0.99696118
    445000  -331.6882       53.099442     -384.78765      282.75813      3071.3235      960.18531      0.99696118
    446000  -324.28974      52.758948     -377.04868      280.94498     -250.35389      960.18531      0.99696118
    447000  -319.10884      64.892308     -384.00115      345.55595     -1979.9796      960.18531      0.99696118
    448000  -301.83958      49.329155     -351.16873      262.6811      -403.62815      960.18531      0.99696118
    449000  -318.84074      64.784498     -383.62524      344.98185      2490.6633      960.18531      0.99696118
    450000  -320.18617      50.230436     -370.41661      267.48048      2074.8699      960.18531      0.99696118
    451000  -311.09215      57.25465      -368.3468       304.8849      -900.31934      960.18531      0.99696118
    452000  -334.9908       59.965581     -394.95638      319.32079     -1203.2582      960.18531      0.99696118
    453000  -324.40813      56.174932     -380.58306      299.13533     -2821.4186      960.18531      0.99696118
    454000  -346.13823      50.906887     -397.04512      271.08263     -4313.6296      960.18531      0.99696118
    455000  -322.03125      54.341415     -376.37266      289.37172      3327.9881      960.18531      0.99696118
    456000  -320.74876      65.051584     -385.80035      346.4041      -1627.2328      960.18531      0.99696118
    457000  -324.10109      55.959753     -380.06084      297.98948     -1106.0813      960.18531      0.99696118
    458000  -328.38259      49.408586     -377.79118      263.10407      624.02234      960.18531      0.99696118
    459000  -323.02947      49.79745      -372.82692      265.1748      -996.69857      960.18531      0.99696118
    460000  -321.44091      55.974455     -377.41536      298.06777      4146.4391      960.18531      0.99696118
    461000  -310.66317      59.880247     -370.54342      318.86638     -3663.3425      960.18531      0.99696118
    462000  -336.15127      60.110418     -396.26168      320.09206     -2136.7155      960.18531      0.99696118
    463000  -314.28393      62.701344     -376.98527      333.88891      2960.0924      960.18531      0.99696118
    464000  -322.88587      59.648699     -382.53457      317.63337     -1715.2617      960.18531      0.99696118
    465000  -301.51282      58.175794     -359.68862      309.79005      2208.5243      960.18531      0.99696118
    466000  -312.43138      55.708935     -368.14032      296.65386      2916.1138      960.18531      0.99696118
    467000  -315.49762      55.455802     -370.95342      295.30591     -3562.0669      960.18531      0.99696118
    468000  -314.34499      51.66587      -366.01086      275.12426     -2643.4513      960.18531      0.99696118
    469000  -322.59529      54.947593     -377.54288      292.59966      3725.3444      960.18531      0.99696118
    470000  -310.04059      61.346282     -371.38688      326.67311      3514.8256      960.18531      0.99696118
    471000  -316.37892      51.775524     -368.15444      275.70818      2209.5717      960.18531      0.99696118
    472000  -332.14365      45.610628     -377.75428      242.87969      469.89595      960.18531      0.99696118
    473000  -345.40281      48.632433     -394.03524      258.97101      746.84319      960.18531      0.99696118
    474000  -331.65066      54.893895     -386.54455      292.31372      2910.6838      960.18531      0.99696118
    475000  -322.0788       63.682396     -385.7612       339.11308     -1241.3822      960.18531      0.99696118
    476000  -337.16849      51.063477     -388.23197      271.91648      6.925417       960.18531      0.99696118
    477000  -312.40406      53.957094     -366.36115      287.32519      940.12561      960.18531      0.99696118
    478000  -312.72035      63.112523     -375.83287      336.07847      1570.3226      960.18531      0.99696118
    479000  -311.08453      52.7633       -363.84783      280.96815      797.00083      960.18531      0.99696118
    480000  -342.45004      47.939361     -390.3894       255.28035      1435.2572      960.18531      0.99696118
    481000  -326.12468      58.147479     -384.27215      309.63927      1543.6567      960.18531      0.99696118
    482000  -316.91019      50.93397      -367.84416      271.22685      724.43075      960.18531      0.99696118
    483000  -344.45904      59.975226     -404.43426      319.37215     -3559.3496      960.18531      0.99696118
    484000  -324.59049      49.661237     -374.25173      264.44946      3879.8714      960.18531      0.99696118
    485000  -333.95293      46.590712     -380.54364      248.09871      669.80791      960.18531      0.99696118
    486000  -324.37057      60.803416     -385.17398      323.78232      2770.3692      960.18531      0.99696118
    487000  -328.83129      51.300885     -380.13217      273.18069     -2554.5172      960.18531      0.99696118
    488000  -317.23197      57.312079     -374.54405      305.19071     -293.45569      960.18531      0.99696118
    489000  -316.57938      61.955045     -378.53442      329.91482      3135.7051      960.18531      0.99696118
    490000  -335.54258      49.358042     -384.90063      262.83493      3550.0487      960.18531      0.99696118
    491000  -316.56576      58.128091     -374.69385      309.53603     -1531.025       960.18531      0.99696118
    492000  -319.7953       63.537749     -383.33305      338.34283     -3098.6563      960.18531      0.99696118
    493000  -319.56484      61.304381     -380.86922      326.44999     -797.80937      960.18531      0.99696118
    494000  -313.08905      57.904944     -370.994        308.34776     -2477.0686      960.18531      0.99696118
    495000  -330.44954      58.785285     -389.23482      313.03563     -2315.1446      960.18531      0.99696118
    496000  -312.64527      64.146796     -376.79206      341.58604     -2418.8287      960.18531      0.99696118
    497000  -312.56601      46.481619     -359.04763      247.51777      2563.2013      960.18531      0.99696118
    498000  -313.56069      56.865252     -370.42594      302.81133     -1435.6349      960.18531      0.99696118
    499000  -333.32133      50.121239     -383.44257      266.899       -527.32495      960.18531      0.99696118
    500000  -316.81192      59.390672     -376.20259      316.25936     -364.78812      960.18531      0.99696118
    501000  -325.61692      54.641029     -380.25795      290.96719      1644.1182      960.18531      0.99696118
    502000  -344.63181      51.888429     -396.52024      276.30941     -3362.9205      960.18531      0.99696118
    503000  -330.02976      51.561638     -381.59139      274.56923      584.46244      960.18531      0.99696118
    504000  -340.78435      59.450399     -400.23474      316.57741     -1623.1684      960.18531      0.99696118
    505000  -332.94169      64.051866     -396.99356      341.08054      916.07533      960.18531      0.99696118
    506000  -337.27576      55.788428     -393.06418      297.07717     -2586.4594      960.18531      0.99696118
    507000  -331.98595      61.062108     -393.04805      325.15987     -190.13052      960.18531      0.99696118
    508000  -345.23826      51.130911     -396.36917      272.27557     -1791.1742      960.18531      0.99696118
    509000  -323.26941      61.782648     -385.05206      328.99679     -821.81716      960.18531      0.99696118
    510000  -320.87288      53.763138     -374.63602      286.29236     -775.9179       960.18531      0.99696118
    511000  -325.73746      55.429573     -381.16704      295.16624     -405.64092      960.18531      0.99696118
    512000  -324.8686       55.743677     -380.61228      296.83886      1581.175       960.18531      0.99696118
    513000  -332.72815      55.377983     -388.10613      294.89152      253.26207      960.18531      0.99696118
    514000  -312.67559      68.166389     -380.84198      362.99065     -1033.962       960.18531      0.99696118
    515000  -317.52553      66.031524     -383.55705      351.62235     -1163.3375      960.18531      0.99696118
    516000  -326.26734      58.295422     -384.56277      310.42708      1714.3696      960.18531      0.99696118
    517000  -317.22152      56.413252     -373.63477      300.4044      -251.47977      960.18531      0.99696118
    518000  -333.57988      54.44585      -388.02573      289.92785      2845.3783      960.18531      0.99696118
    519000  -317.01685      50.813101     -367.82995      270.58321      839.85907      960.18531      0.99696118
    520000  -314.74708      57.789058     -372.53614      307.73066     -559.02544      960.18531      0.99696118
    521000  -318.45423      54.842036     -373.29627      292.03756     -1625.4106      960.18531      0.99696118
    522000  -300.01265      55.191715     -355.20436      293.89963     -3123.2655      960.18531      0.99696118
    523000  -325.85662      47.446084     -373.30271      252.65362      23.926583      960.18531      0.99696118
    524000  -319.11025      51.032142     -370.14239      271.74962     -3444.5331      960.18531      0.99696118
    525000  -320.80508      58.090183     -378.89527      309.33417     -3690.3869      960.18531      0.99696118
    526000  -315.14778      55.654527     -370.8023       296.36414     -230.4712       960.18531      0.99696118
    527000  -321.17694      52.930601     -374.10754      281.85904     -1346.2676      960.18531      0.99696118
    528000  -318.63153      66.949461     -385.58099      356.51043      2503.1567      960.18531      0.99696118
    529000  -325.74284      58.77363      -384.51647      312.97357      1831.6126      960.18531      0.99696118
    530000  -320.81947      50.561321     -371.38079      269.24247      617.93938      960.18531      0.99696118
    531000  -317.42587      62.263789     -379.68966      331.55891      1945.1161      960.18531      0.99696118
    532000  -322.02541      60.948742     -382.97415      324.55619      2811.3683      960.18531      0.99696118
    533000  -314.16646      52.931923     -367.09838      281.86608      1295.255       960.18531      0.99696118
    534000  -329.23382      47.04737      -376.28119      250.53044     -567.65564      960.18531      0.99696118
    535000  -302.19114      62.340638     -364.53178      331.96813      3279.0778      960.18531      0.99696118
    536000  -296.31284      63.528081     -359.84092      338.29134      952.63835      960.18531      0.99696118
    537000  -320.49268      48.70687      -369.19955      259.36739     -2263.2488      960.18531      0.99696118
    538000  -327.02807      55.066588     -382.09466      293.23332      1603.7092      960.18531      0.99696118
    539000  -318.67672      50.039403     -368.71613      266.46322      3290.6662      960.18531      0.99696118
    540000  -304.77503      70.545468     -375.3205       375.65941     -1822.5004      960.18531      0.99696118
    541000  -323.50586      55.356708     -378.86257      294.77823     -344.38333      960.18531      0.99696118
    542000  -309.11193      59.37205      -368.48398      316.1602      -985.28218      960.18531      0.99696118
    543000  -330.46678      55.372573     -385.83935      294.86271     -2396.6367      960.18531      0.99696118
    544000  -312.6685       58.682374     -371.35088      312.48763      2778.4083      960.18531      0.99696118
    545000  -326.00469      55.069569     -381.07426      293.24919      5511.9412      960.18531      0.99696118
    546000  -307.96603      72.318028     -380.28405      385.09841      5140.4513      960.18531      0.99696118
    547000  -328.91613      52.109525     -381.02566      277.48676     -1917.4405      960.18531      0.99696118
    548000  -310.78136      56.083225     -366.86458      298.64698     -1751.0218      960.18531      0.99696118
    549000  -334.23598      50.100818     -384.3368       266.79026     -6797.9455      960.18531      0.99696118
    550000  -329.52012      56.658        -386.17812      301.7077       3347.4694      960.18531      0.99696118
    551000  -330.67451      55.51982      -386.19433      295.64681      647.77123      960.18531      0.99696118
    552000  -339.21886      51.848462     -391.06732      276.09658      820.94899      960.18531      0.99696118
    553000  -328.97431      57.711925     -386.68624      307.31992     -2249.2943      960.18531      0.99696118
    554000  -324.42006      55.181604     -379.60166      293.84579     -1355.4203      960.18531      0.99696118
    555000  -324.51576      57.957897     -382.47365      308.62974     -3463.9634      960.18531      0.99696118
    556000  -322.79397      58.371456     -381.16543      310.83196     -2805.3661      960.18531      0.99696118
    557000  -312.56107      61.445444     -374.00652      327.20116      3286.9033      960.18531      0.99696118
    558000  -333.50098      51.904261     -385.40524      276.39371      2257.3191      960.18531      0.99696118
    559000  -317.15705      57.837067     -374.99411      307.98631      1136.8989      960.18531      0.99696118
    560000  -325.16434      54.423369     -379.58771      289.80814     -1693.8998      960.18531      0.99696118
    561000  -336.41607      54.197459     -390.61353      288.60515     -249.73997      960.18531      0.99696118
    562000  -321.1502       65.58131      -386.73151      349.22493      3529.0648      960.18531      0.99696118
    563000  -331.5722       52.908729     -384.48093      281.74258     -1977.7032      960.18531      0.99696118
    564000  -327.31056      52.091057     -379.40162      277.38842      1217.5479      960.18531      0.99696118
    565000  -325.55362      57.015991     -382.56961      303.61402     -650.78093      960.18531      0.99696118
    566000  -317.01559      59.035204     -376.05079      314.36647      4322.5403      960.18531      0.99696118
    567000  -329.88556      52.271376     -382.15694      278.34863     -250.2294       960.18531      0.99696118
    568000  -322.95591      58.240454     -381.19637      310.13437      781.96658      960.18531      0.99696118
    569000  -308.25223      58.640916     -366.89315      312.26686     -1973.4335      960.18531      0.99696118
    570000  -329.63767      50.253121     -379.89079      267.60128      595.3723       960.18531      0.99696118
    571000  -321.48008      60.36186      -381.84194      321.431        870.53389      960.18531      0.99696118
    572000  -336.5041       51.118445     -387.62255      272.20919     -766.49123      960.18531      0.99696118
    573000  -336.56121      52.37977      -388.94098      278.92583      2147.1309      960.18531      0.99696118
    574000  -320.69793      49.635397     -370.33333      264.31186     -2672.5967      960.18531      0.99696118
    575000  -332.77896      52.874174     -385.65314      281.55856     -5209.0312      960.18531      0.99696118
    576000  -314.10226      54.755022     -368.85728      291.57421      3652.3374      960.18531      0.99696118
    577000  -328.68232      48.966736     -377.64906      260.75119     -2182.1982      960.18531      0.99696118
    578000  -323.79789      62.28656      -386.08445      331.68016     -2274.326       960.18531      0.99696118
    579000  -329.60381      50.917279     -380.52109      271.13797     -2206.4056      960.18531      0.99696118
    580000  -316.7391       55.461933     -372.20103      295.33856     -2017.6739      960.18531      0.99696118
    581000  -327.44835      56.482169     -383.93052      300.77139      141.83482      960.18531      0.99696118
    582000  -312.53516      50.700627     -363.23578      269.98428     -2078.4718      960.18531      0.99696118
    583000  -323.61384      53.221445     -376.83529      283.40781     -632.30934      960.18531      0.99696118
    584000  -323.39019      54.510157     -377.90034      290.27028     -591.22616      960.18531      0.99696118
    585000  -323.76869      56.13371      -379.9024       298.91582      1770.778       960.18531      0.99696118
    586000  -331.38722      52.063085     -383.4503       277.23946      1037.7038      960.18531      0.99696118
    587000  -333.94433      52.118642     -386.06298      277.53531      2304.8881      960.18531      0.99696118
    588000  -332.32013      49.188204     -381.50833      261.93052      2242.5455      960.18531      0.99696118
    589000  -318.26926      60.663685     -378.93295      323.03824      1691.5766      960.18531      0.99696118
    590000  -328.47015      49.775828     -378.24598      265.05966      2363.426       960.18531      0.99696118
    591000  -329.31768      57.715391     -387.03307      307.33837      736.37098      960.18531      0.99696118
    592000  -311.4681       56.365299     -367.8334       300.14904     -962.75765      960.18531      0.99696118
    593000  -308.57199      63.388649     -371.96064      337.54886     -2199.7183      960.18531      0.99696118
    594000  -332.68743      53.041361     -385.72879      282.44885     -4056.092       960.18531      0.99696118
    595000  -321.08901      52.041925     -373.13093      277.12679      2156.4897      960.18531      0.99696118
    596000  -317.17942      55.979824     -373.15924      298.09636     -1059.4385      960.18531      0.99696118
    597000  -331.93197      53.336633     -385.2686       284.02119     -2020.6963      960.18531      0.99696118
    598000  -312.00418      56.371675     -368.37586      300.183        3056.4941      960.18531      0.99696118
    599000  -302.74816      61.69694      -364.4451       328.54039      2627.1016      960.18531      0.99696118
    600000  -325.49836      56.967398     -382.46575      303.35526     -1014.3276      960.18531      0.99696118
    601000  -322.70213      50.990525     -373.69265      271.52801     -1856.2248      960.18531      0.99696118
    602000  -322.66402      59.918997     -382.58301      319.07273     -1151.4426      960.18531      0.99696118
    603000  -324.09404      57.750785     -381.84483      307.52685      882.01328      960.18531      0.99696118
    604000  -313.58819      63.619522     -377.20771      338.77827     -3248.7832      960.18531      0.99696118
    605000  -322.47823      57.074391     -379.55262      303.92501     -1992.6847      960.18531      0.99696118
    606000  -327.2532       59.916147     -387.16935      319.05755     -847.49924      960.18531      0.99696118
    607000  -328.12971      57.795401     -385.92511      307.76443     -2979.8332      960.18531      0.99696118
    608000  -319.21755      54.608624     -373.82618      290.79463      2916.9111      960.18531      0.99696118
    609000  -329.23355      57.472751     -386.7063       306.0463      -2349.6231      960.18531      0.99696118
    610000  -327.11817      62.120701     -389.23887      330.79695      997.53694      960.18531      0.99696118
    611000  -330.28366      54.531214     -384.81487      290.38241      816.40324      960.18531      0.99696118
    612000  -331.29784      57.365142     -388.66298      305.47327     -821.9462       960.18531      0.99696118
    613000  -319.23481      50.277503     -369.51231      267.73112     -720.54063      960.18531      0.99696118
    614000  -327.26504      53.718032     -380.98307      286.05217      1075.3114      960.18531      0.99696118
    615000  -336.65116      50.474003     -387.12516      268.77749     -1689.6919      960.18531      0.99696118
    616000  -326.82734      60.419876     -387.24721      321.73994     -297.61232      960.18531      0.99696118
    617000  -341.58106      49.851479     -391.43254      265.46251      156.9244       960.18531      0.99696118
    618000  -324.07794      57.177084     -381.25503      304.47185     -1972.952       960.18531      0.99696118
    619000  -343.59949      55.555327     -399.15482      295.83589      1320.8207      960.18531      0.99696118
    620000  -342.27763      50.792052     -393.06968      270.47113     -3609.2035      960.18531      0.99696118
    621000  -310.25565      61.094511     -371.35016      325.33242      3483.5613      960.18531      0.99696118
    622000  -322.44484      56.22509      -378.66993      299.40242      1240.4535      960.18531      0.99696118
    623000  -313.73021      65.21033      -378.94054      347.24943      750.51623      960.18531      0.99696118
    624000  -325.70362      53.529147     -379.23277      285.04634      1534.426       960.18531      0.99696118
    625000  -320.63023      56.994599     -377.62483      303.50011     -1177.814       960.18531      0.99696118
    626000  -318.5291       54.671007     -373.20011      291.12683     -4053.921       960.18531      0.99696118
    627000  -294.12827      62.788012     -356.91628      334.35043     -2149.6313      960.18531      0.99696118
    628000  -324.80744      52.172372     -376.97981      277.82143     -1600.2144      960.18531      0.99696118
    629000  -311.46796      61.270341     -372.7383       326.26873     -2503.4893      960.18531      0.99696118
    630000  -313.46339      60.344796     -373.80818      321.34013      361.00248      960.18531      0.99696118
    631000  -321.48132      59.823679     -381.305        318.56515     -1096.4226      960.18531      0.99696118
    632000  -312.6586       66.413477     -379.07208      353.65627      216.61149      960.18531      0.99696118
    633000  -323.01245      49.281746     -372.29419      262.42864     -819.65158      960.18531      0.99696118
    634000  -318.91524      59.123614     -378.03886      314.83726     -859.09296      960.18531      0.99696118
    635000  -314.24674      59.22051      -373.46725      315.35323      3749.0694      960.18531      0.99696118
    636000  -329.51438      60.866376     -390.38075      324.11758     -1353.6126      960.18531      0.99696118
    637000  -320.42505      51.038617     -371.46367      271.7841       532.47302      960.18531      0.99696118
    638000  -288.12643      65.304404     -353.43084      347.75039      1060.0913      960.18531      0.99696118
    639000  -320.46637      51.377829     -371.8442       273.59043     -4206.6294      960.18531      0.99696118
    640000  -320.26723      49.41862      -369.68585      263.15751      2587.8689      960.18531      0.99696118
    641000  -323.19327      61.267527     -384.4608       326.25374     -1872.9903      960.18531      0.99696118
    642000  -318.55041      52.147637     -370.69805      277.68971      3620.6094      960.18531      0.99696118
    643000  -334.98882      47.191507     -382.18033      251.29798     -3371.4194      960.18531      0.99696118
    644000  -322.132        58.64825      -380.78025      312.30591     -1355.4632      960.18531      0.99696118
    645000  -338.66323      47.734575     -386.39781      254.18985      455.37532      960.18531      0.99696118
    646000  -325.58921      51.330077     -376.91928      273.33614     -1208.4719      960.18531      0.99696118
    647000  -312.98739      67.512387     -380.49978      359.50805      253.39733      960.18531      0.99696118
    648000  -310.91544      56.500525     -367.41597      300.86913      988.40016      960.18531      0.99696118
    649000  -303.97944      59.426635     -363.40607      316.45087     -1338.049       960.18531      0.99696118
    650000  -311.37748      51.301385     -362.67886      273.18336      2427.1735      960.18531      0.99696118
[...]
   2842000  -334.22069      47.228152     -381.44884      251.49311      1885.517       960.18531      0.99696118
   2843000  -314.22245      60.681723     -374.90417      323.13429      4471.6805      960.18531      0.99696118
   2844000  -315.75836      57.416375     -373.17474      305.74609     -1947.8462      960.18531      0.99696118
   2845000  -315.20308      50.035311     -365.23839      266.44143     -601.84195      960.18531      0.99696118
   2846000  -328.62283      47.609212     -376.23204      253.52229      1654.7507      960.18531      0.99696118
   2847000  -313.19274      58.052377     -371.24512      309.13285      508.0872       960.18531      0.99696118
   2848000  -325.06058      61.125248     -386.18583      325.4961       4229.288       960.18531      0.99696118
   2849000  -332.81104      61.197154     -394.00819      325.879        1248.3783      960.18531      0.99696118
   2850000  -333.3892       61.017323     -394.40652      324.92138      1065.0541      960.18531      0.99696118
   2851000  -321.77986      59.002383     -380.78224      314.1917       2659.4036      960.18531      0.99696118
   2852000  -325.40336      53.816328     -379.21968      286.5756      -2444.8462      960.18531      0.99696118
   2853000  -324.62755      63.733552     -388.3611       339.38549      835.14254      960.18531      0.99696118
   2854000  -311.84433      63.23711      -375.08144      336.7419      -2412.9522      960.18531      0.99696118
   2855000  -311.33938      62.19332      -373.5327       331.18365      612.25044      960.18531      0.99696118
   2856000  -332.48288      47.680467     -380.16335      253.90172      1177.5805      960.18531      0.99696118
   2857000  -320.08082      67.213045     -387.29386      357.91402      1781.3274      960.18531      0.99696118
   2858000  -316.56007      55.265958     -371.82602      294.29498     -2189.4336      960.18531      0.99696118
   2859000  -335.43502      53.751576     -389.18659      286.23079     -1769.8975      960.18531      0.99696118
   2860000  -322.36304      60.387898     -382.75094      321.56966      2726.0724      960.18531      0.99696118
   2861000  -336.08968      47.017441     -383.10712      250.37106      1900.5935      960.18531      0.99696118
   2862000  -317.46954      60.544058     -378.0136       322.40122      1939.6482      960.18531      0.99696118
   2863000  -343.85331      49.504264     -393.35757      263.61357      1303.6233      960.18531      0.99696118
   2864000  -326.39788      48.966729     -375.36461      260.75115     -3145.9875      960.18531      0.99696118
   2865000  -311.2096       60.177858     -371.38746      320.45118      216.37274      960.18531      0.99696118
   2866000  -313.52637      63.189837     -376.71621      336.49017      458.45357      960.18531      0.99696118
   2867000  -312.91306      61.02632      -373.93938      324.96929     -2711.1385      960.18531      0.99696118
   2868000  -336.37813      53.216163     -389.59429      283.37968     -1891.3842      960.18531      0.99696118
   2869000  -326.88831      47.530618     -374.41893      253.10377     -1475.3988      960.18531      0.99696118
   2870000  -328.0866       62.724443     -390.81104      334.01192     -1755.9715      960.18531      0.99696118
   2871000  -331.5173       57.319261     -388.83657      305.22896     -1929.6612      960.18531      0.99696118
   2872000  -307.11103      64.684797     -371.79583      344.45094     -518.97006      960.18531      0.99696118
   2873000  -310.83181      61.753327     -372.58514      328.84066     -2868.6395      960.18531      0.99696118
   2874000  -313.39786      55.872593     -369.27046      297.52535     -2942.1147      960.18531      0.99696118
   2875000  -326.62643      51.403448     -378.02988      273.72685      546.47959      960.18531      0.99696118
   2876000  -319.65491      55.56501      -375.21992      295.88745      1803.704       960.18531      0.99696118
   2877000  -327.93899      53.635005     -381.574        285.61005      3749.322       960.18531      0.99696118
   2878000  -328.64844      51.900137     -380.54858      276.37175     -874.36553      960.18531      0.99696118
   2879000  -344.25514      59.12682      -403.38196      314.85433      463.24414      960.18531      0.99696118
   2880000  -330.85521      51.244355     -382.09956      272.87967      2000.3294      960.18531      0.99696118
   2881000  -321.67971      59.691656     -381.37137      317.86212     -4007.0308      960.18531      0.99696118
   2882000  -328.88089      53.967761     -382.84865      287.38199     -1689.6438      960.18531      0.99696118
   2883000  -326.29244      57.453924     -383.74637      305.94605     -1282.7088      960.18531      0.99696118
   2884000  -325.68484      56.875537     -382.56037      302.8661       984.12537      960.18531      0.99696118
   2885000  -326.14631      64.977616     -391.12393      346.01022      568.02131      960.18531      0.99696118
   2886000  -316.07314      55.243162     -371.31631      294.17359      1777.8428      960.18531      0.99696118
   2887000  -320.28529      57.151817     -377.43711      304.3373       1525.1455      960.18531      0.99696118
   2888000  -322.62286      51.296166     -373.91903      273.15557     -2906.5886      960.18531      0.99696118
   2889000  -317.97871      61.419789     -379.3985       327.06454      3148.9264      960.18531      0.99696118
   2890000  -287.31437      69.817767     -357.13214      371.78435      2734.0846      960.18531      0.99696118
   2891000  -308.01894      59.932958     -367.9519       319.14707     -1819.4013      960.18531      0.99696118
   2892000  -306.30601      61.180727     -367.48674      325.79152      516.00219      960.18531      0.99696118
   2893000  -324.62174      63.009239     -387.63098      335.52847     -2997.4345      960.18531      0.99696118
   2894000  -321.2365       58.932389     -380.16889      313.81897      918.72425      960.18531      0.99696118
   2895000  -331.53459      47.410009     -378.94459      252.46152     -1182.9016      960.18531      0.99696118
   2896000  -317.00443      61.479237     -378.48367      327.38111     -216.89456      960.18531      0.99696118
   2897000  -322.66058      53.510341     -376.17092      284.9462      -336.42872      960.18531      0.99696118
   2898000  -336.02241      47.107916     -383.13033      250.85285     -336.97134      960.18531      0.99696118
   2899000  -323.99244      53.601204     -377.59365      285.43005      772.00749      960.18531      0.99696118
   2900000  -321.57785      61.814068     -383.39192      329.16411      1374.7634      960.18531      0.99696118
   2901000  -324.91798      54.048798     -378.96678      287.81352     -1218.3556      960.18531      0.99696118
   2902000  -325.3928       59.279046     -384.67185      315.66495     -1222.8693      960.18531      0.99696118
   2903000  -328.55906      53.83665      -382.39571      286.68382      1427.8764      960.18531      0.99696118
   2904000  -330.87079      47.250508     -378.1213       251.61216     -2245.6087      960.18531      0.99696118
   2905000  -326.18439      54.680481     -380.86487      291.17727     -1354.4372      960.18531      0.99696118
   2906000  -338.59196      55.656452     -394.24841      296.37438      804.23759      960.18531      0.99696118
   2907000  -324.47179      49.595224     -374.06701      264.09794      2636.1175      960.18531      0.99696118
   2908000  -321.64258      56.56212      -378.2047       301.19713      1587.8868      960.18531      0.99696118
   2909000  -303.65234      66.36743      -370.01977      353.41107      537.25519      960.18531      0.99696118
   2910000  -323.54793      50.603274     -374.15121      269.46587      3110.6984      960.18531      0.99696118
   2911000  -293.66503      71.258278     -364.92331      379.45517     -359.68284      960.18531      0.99696118
   2912000  -333.80674      63.479423     -397.28616      338.03224     -2424.3115      960.18531      0.99696118
   2913000  -322.27396      62.580272     -384.85423      333.2442       5617.7115      960.18531      0.99696118
   2914000  -325.36016      58.591864     -383.95202      312.00565     -23.926987      960.18531      0.99696118
   2915000  -339.80551      50.137763     -389.94327      266.98699     -3112.3531      960.18531      0.99696118
   2916000  -309.91153      57.767804     -367.67933      307.61748     -2030.1296      960.18531      0.99696118
   2917000  -328.83841      58.200277     -387.03869      309.92042      2055.877       960.18531      0.99696118
   2918000  -331.94787      51.278159     -383.22603      273.05968      2280.1285      960.18531      0.99696118
   2919000  -331.23917      52.131498     -383.37067      277.60377     -5145.8317      960.18531      0.99696118
   2920000  -332.7969       56.723911     -389.52081      302.05868     -2797.4351      960.18531      0.99696118
   2921000  -335.99932      58.189555     -394.18887      309.86333     -3472.314       960.18531      0.99696118
   2922000  -311.96583      55.478696     -367.44453      295.42782      416.07659      960.18531      0.99696118
   2923000  -317.3739       55.178795     -372.5527       293.83083     -157.10667      960.18531      0.99696118
   2924000  -327.86003      55.454985     -383.31502      295.30156     -4092.523       960.18531      0.99696118
   2925000  -332.20904      51.633953     -383.84299      274.95431      1973.3731      960.18531      0.99696118
   2926000  -315.97315      67.075675     -383.04882      357.18252     -915.20719      960.18531      0.99696118
   2927000  -322.24638      57.161428     -379.40781      304.38848      2056.0456      960.18531      0.99696118
   2928000  -328.75274      52.883254     -381.63599      281.60692      546.92654      960.18531      0.99696118
   2929000  -339.48565      54.598684     -394.08433      290.7417      -1033.9301      960.18531      0.99696118
   2930000  -321.03568      64.156834     -385.19251      341.6395      -596.0493       960.18531      0.99696118
   2931000  -322.93279      51.10243      -374.03522      272.12391     -2384.2575      960.18531      0.99696118
   2932000  -326.46972      54.164041     -380.63376      288.4272       4530.0315      960.18531      0.99696118
   2933000  -300.1927       60.233536     -360.42624      320.74767     -1650.1435      960.18531      0.99696118
   2934000  -311.48828      62.695966     -374.18425      333.86028      570.13976      960.18531      0.99696118
   2935000  -310.54347      62.979054     -373.52253      335.36774     -2718.9991      960.18531      0.99696118
   2936000  -323.90584      53.283988     -377.18983      283.74085      997.75585      960.18531      0.99696118
   2937000  -315.98768      55.934166     -371.92185      297.85323     -3443.9408      960.18531      0.99696118
   2938000  -310.37257      63.17453      -373.5471       336.40866      2183.1275      960.18531      0.99696118
   2939000  -335.29045      57.035456     -392.3259       303.71768     -1024.7147      960.18531      0.99696118
   2940000  -325.30337      55.253953     -380.55732      294.23105     -402.59369      960.18531      0.99696118
   2941000  -306.51321      56.188298     -362.7015       299.2065      -2385.2056      960.18531      0.99696118
   2942000  -323.98986      51.600859     -375.59072      274.77808     -311.33982      960.18531      0.99696118
   2943000  -316.21833      69.196932     -385.41526      368.47836     -2025.7388      960.18531      0.99696118
   2944000  -331.23747      51.969471     -383.20694      276.74096     -1768.0699      960.18531      0.99696118
   2945000  -332.97461      54.132734     -387.10734      288.26048     -2579.0033      960.18531      0.99696118
   2946000  -314.91205      53.853429     -368.76548      286.77317      268.72026      960.18531      0.99696118
   2947000  -323.64773      63.37748      -387.02521      337.48938      335.82607      960.18531      0.99696118
   2948000  -324.85865      56.131725     -380.99037      298.90525     -994.69261      960.18531      0.99696118
   2949000  -323.3514       57.229967     -380.58137      304.75346      3280.2449      960.18531      0.99696118
   2950000  -309.98038      61.956399     -371.93678      329.92203      1356.3612      960.18531      0.99696118
   2951000  -332.40451      52.956065     -385.36057      281.99464     -3362.7058      960.18531      0.99696118
   2952000  -327.39889      54.451432     -381.85032      289.95757     -932.39852      960.18531      0.99696118
   2953000  -330.1822       52.676275     -382.85848      280.50474      855.17433      960.18531      0.99696118
   2954000  -318.21278      52.51652      -370.7293       279.65403      1845.6668      960.18531      0.99696118
   2955000  -346.20614      52.772406     -398.97855      281.01664      1882.4963      960.18531      0.99696118
   2956000  -309.22861      64.494302     -373.72291      343.43654     -254.87157      960.18531      0.99696118
   2957000  -338.54007      53.305349     -391.84542      283.8546      -1304.8239      960.18531      0.99696118
   2958000  -342.97882      60.604178     -403.583        322.72136      98.137675      960.18531      0.99696118
   2959000  -326.18563      58.035722     -384.22135      309.04416     -1272.0847      960.18531      0.99696118
   2960000  -325.61064      56.302892     -381.91353      299.81672      2509.527       960.18531      0.99696118
   2961000  -316.61269      47.66695      -364.27964      253.82975      48.218725      960.18531      0.99696118
   2962000  -323.30901      62.692824     -386.00183      333.84354     -1009.2783      960.18531      0.99696118
   2963000  -326.93758      53.29434      -380.23192      283.79598     -593.17771      960.18531      0.99696118
   2964000  -317.52824      52.238555     -369.76679      278.17385      830.12896      960.18531      0.99696118
   2965000  -343.49366      50.275348     -393.76901      267.71964      2097.241       960.18531      0.99696118
   2966000  -329.62659      57.89122      -387.51781      308.27467     -1824.4087      960.18531      0.99696118
   2967000  -315.74892      61.743612     -377.49253      328.78892     -2697.7229      960.18531      0.99696118
   2968000  -321.92245      52.8598       -374.78225      281.48202     -1438.8681      960.18531      0.99696118
   2969000  -315.29105      57.90974      -373.20079      308.3733      -1315.2843      960.18531      0.99696118
   2970000  -328.90288      61.102668     -390.00555      325.37585      428.82909      960.18531      0.99696118
   2971000  -325.18122      51.283739     -376.46496      273.08939     -3575.6169      960.18531      0.99696118
   2972000  -304.621        52.496563     -357.11756      279.54776     -6061.3782      960.18531      0.99696118
   2973000  -327.03373      56.062558     -383.09629      298.53693     -2309.8429      960.18531      0.99696118
   2974000  -317.17386      60.964018     -378.13788      324.63753     -1185.8241      960.18531      0.99696118
   2975000  -311.4655       55.699121     -367.16462      296.6016       1055.2823      960.18531      0.99696118
   2976000  -330.43877      45.578361     -376.01713      242.70787     -2988.7134      960.18531      0.99696118
   2977000  -323.42411      49.125691     -372.5498       261.59764      882.56215      960.18531      0.99696118
   2978000  -313.34333      51.238559     -364.58189      272.84881     -531.82746      960.18531      0.99696118
   2979000  -337.36622      51.376414     -388.74263      273.58289     -210.77495      960.18531      0.99696118
   2980000  -332.07587      53.263452     -385.33932      283.6315      -2613.2879      960.18531      0.99696118
   2981000  -322.77886      56.84877      -379.62763      302.72356      481.51969      960.18531      0.99696118
   2982000  -330.56694      52.518324     -383.08526      279.66364     -538.65228      960.18531      0.99696118
   2983000  -312.48925      57.591432     -370.08068      306.67829      2023.0577      960.18531      0.99696118
   2984000  -334.86572      52.154871     -387.02059      277.72823      2108.5224      960.18531      0.99696118
   2985000  -325.89914      57.031816     -382.93095      303.69829      2938.1624      960.18531      0.99696118
   2986000  -336.06175      45.895095     -381.95684      244.3945      -1538.9997      960.18531      0.99696118
   2987000  -328.71451      52.723803     -381.43832      280.75783     -1562.1355      960.18531      0.99696118
   2988000  -317.4856       51.068494     -368.5541       271.9432       696.93796      960.18531      0.99696118
   2989000  -325.9603       57.639057     -383.59936      306.93189     -759.85591      960.18531      0.99696118
   2990000  -313.29246      67.501404     -380.79386      359.44956      1178.9584      960.18531      0.99696118
   2991000  -328.27931      53.007949     -381.28725      282.27093      106.43575      960.18531      0.99696118
   2992000  -332.19994      50.625268     -382.82521      269.58299     -3540.3569      960.18531      0.99696118
   2993000  -331.72986      56.338039     -388.0679       300.00388     -5793.5206      960.18531      0.99696118
   2994000  -311.77198      61.104448     -372.87643      325.38534     -2044.0553      960.18531      0.99696118
   2995000  -326.53403      53.595232     -380.12926      285.39825     -2855.8577      960.18531      0.99696118
   2996000  -330.03259      54.814074     -384.84667      291.88867     -3288.7939      960.18531      0.99696118
   2997000  -315.37418      68.099155     -383.47334      362.63263      3346.8431      960.18531      0.99696118
   2998000  -327.98225      53.895547     -381.8778       286.99745      1957.5622      960.18531      0.99696118
   2999000  -336.61871      53.494211     -390.11292      284.86031      2797.7824      960.18531      0.99696118
   3000000  -317.68598      65.64562      -383.3316       349.56739      598.02933      960.18531      0.99696118
Loop time of 1044.95 on 1 procs for 2000000 steps with 96 atoms

Performance: 165.366 ns/day, 0.145 hours/ns, 1913.963 timesteps/s
99.7% CPU use with 1 MPI tasks x 1 OpenMP threads

MPI task timing breakdown:
Section |  min time  |  avg time  |  max time  |%varavg| %total
---------------------------------------------------------------
Pair    | 854.23     | 854.23     | 854.23     |   0.0 | 81.75
Bond    | 0.10609    | 0.10609    | 0.10609    |   0.0 |  0.01
Kspace  | 120.75     | 120.75     | 120.75     |   0.0 | 11.56
Neigh   | 31.73      | 31.73      | 31.73      |   0.0 |  3.04
Comm    | 22.971     | 22.971     | 22.971     |   0.0 |  2.20
Output  | 0.25554    | 0.25554    | 0.25554    |   0.0 |  0.02
Modify  | 11.597     | 11.597     | 11.597     |   0.0 |  1.11
Other   |            | 3.316      |            |       |  0.32

Nlocal:             96 ave          96 max          96 min
Histogram: 1 0 0 0 0 0 0 0 0 0
Nghost:           3860 ave        3860 max        3860 min
Histogram: 1 0 0 0 0 0 0 0 0 0
Neighs:          34752 ave       34752 max       34752 min
Histogram: 1 0 0 0 0 0 0 0 0 0

Total # of neighbors = 34752
Ave neighs/atom = 362
Ave special neighs/atom = 2
Neighbor list builds = 44072
Dangerous builds = 0

# write data file
write_data data.after_prod.lmp
System init for write_data ...
PPPM initialization ...
  using 12-bit tables for long-range coulomb (src/kspace.cpp:342)
  G vector (1/distance) = 0.30847861
  grid = 9 9 9
  stencil order = 5
  estimated absolute RMS force accuracy = 0.0027675926
  estimated relative force accuracy = 8.334523e-06
  using double precision FFTW3
  3d grid and FFT values/proc = 4096 729
Generated 1 of 1 mixed pair_coeff terms from geometric mixing rule

# clean up
undump dPROD
unfix fTHERMO
unfix fMOM
unfix fSHAKE
Total wall time: 0:26:06
