LAMMPS (23 Jun 2022 - Update 4)
  using 1 OpenMP thread(s) per MPI task
# created by fftool

# System settings
units real
boundary p p p  # Periodic boundary conditions

# definition of atoms, bonds, angles
atom_style full
bond_style harmonic
angle_style harmonic

# definition of pair potentials
special_bonds lj/coul 0.0 0.0 0.5
pair_style lj/cut/coul/long 10.0 10.0
pair_modify mix geometric tail yes
kspace_style pppm 1.0e-5

# read data file
read_data data.lmp
Reading data file ...
  orthogonal box = (0 0 0) to (12.42973 12.42973 12.42973)
  1 by 1 by 1 MPI processor grid
  reading atoms ...
  192 atoms
  scanning bonds ...
  1 = max bonds/atom
  scanning angles ...
  1 = max angles/atom
  reading bonds ...
  128 bonds
  reading angles ...
  64 angles
Finding 1-2 1-3 1-4 neighbors ...
  special bond factors lj:    0        0        0.5
  special bond factors coul:  0        0        0.5
     2 = max # of 1-2 neighbors
     1 = max # of 1-3 neighbors
     1 = max # of 1-4 neighbors
     2 = max # of special neighbors
  special bonds CPU = 0.000 seconds
  read_data CPU = 0.006 seconds

# definition of LJ parameters
pair_coeff    1    1     0.000000     0.000000  # Hw Hw
pair_coeff    2    2     0.162985     3.178841  # Ow-Ow

############################################

# remove energy hotspots
minimize 1.0e-4 1.0e-6 100 1000
WARNING: Using 'neigh_modify every 1 delay 0 check yes' setting during minimization (src/min.cpp:187)
PPPM initialization ...
  using 12-bit tables for long-range coulomb (src/kspace.cpp:342)
  G vector (1/distance) = 0.31260513
  grid = 12 12 12
  stencil order = 5
  estimated absolute RMS force accuracy = 0.0021455329
  estimated relative force accuracy = 6.4612085e-06
  using double precision FFTW3
  3d grid and FFT values/proc = 6859 1728
Generated 1 of 1 mixed pair_coeff terms from geometric mixing rule
Neighbor list info ...
  update every 1 steps, delay 0 steps, check yes
  max neighbors/atom: 2000, page size: 100000
  master list distance cutoff = 12
  ghost atom cutoff = 12
  binsize = 6, bins = 3 3 3
  1 neighbor lists, perpetual/occasional/extra = 1 0 0
  (1) pair lj/cut/coul/long, perpetual
      attributes: half, newton on
      pair build: half/bin/newton
      stencil: half/bin/3d
      bin: standard
Per MPI rank memory allocation (min/avg/max) = 8.743 | 8.743 | 8.743 Mbytes
   Step          Temp          E_pair         E_mol          TotEng         Press
         0   0              22957.842      2.3418202e-07  22957.842      3319592.8
       100   0             -953.76281      72.41317      -881.34964     -7150.8643
Loop time of 0.21882 on 1 procs for 100 steps with 192 atoms

99.6% CPU use with 1 MPI tasks x 1 OpenMP threads

Minimization stats:
  Stopping criterion = max iterations
  Energy initial, next-to-last, final =
      22957.8418485065  -879.395632548584  -881.349639051058
  Force two-norm initial, final = 131212.27 36.050799
  Force max component initial, final = 58444.034 8.3325848
  Final line search alpha, max atom move = 0.0088672495 0.073887108
  Iterations, force evaluations = 100 179

MPI task timing breakdown:
Section |  min time  |  avg time  |  max time  |%varavg| %total
---------------------------------------------------------------
Pair    | 0.1889     | 0.1889     | 0.1889     |   0.0 | 86.33
Bond    | 0.00069663 | 0.00069663 | 0.00069663 |   0.0 |  0.32
Kspace  | 0.02086    | 0.02086    | 0.02086    |   0.0 |  9.53
Neigh   | 0.004959   | 0.004959   | 0.004959   |   0.0 |  2.27
Comm    | 0.0024461  | 0.0024461  | 0.0024461  |   0.0 |  1.12
Output  | 1.2147e-05 | 1.2147e-05 | 1.2147e-05 |   0.0 |  0.01
Modify  | 0          | 0          | 0          |   0.0 |  0.00
Other   |            | 0.0009435  |            |       |  0.43

Nlocal:            192 ave         192 max         192 min
Histogram: 1 0 0 0 0 0 0 0 0 0
Nghost:           4692 ave        4692 max        4692 min
Histogram: 1 0 0 0 0 0 0 0 0 0
Neighs:          69127 ave       69127 max       69127 min
Histogram: 1 0 0 0 0 0 0 0 0 0

Total # of neighbors = 69127
Ave neighs/atom = 360.03646
Ave special neighs/atom = 2
Neighbor list builds = 4
Dangerous builds = 0
reset_timestep 0

# constrain water bonds and angles
fix fSHAKE all shake 0.0001 20 0 b 1 a 1
       0 = # of size 2 clusters
       0 = # of size 3 clusters
       0 = # of size 4 clusters
      64 = # of frozen angles
  find clusters CPU = 0.000 seconds

# remove Center of Mass movement every 100 steps
fix fMOM all momentum 100 linear 1 1 1

# define the neighbor list
neighbor 2.0 bin

# IMPORTANT: timestep and temperature and pressure
timestep 1.0
variable vTK equal 298.15
variable vPBAR equal 1.0

# randomize velocities
velocity all create ${vTK} 89375
velocity all create 298.15 89375

# thermostat (solving the ODE)
fix fTHERMO all nvt temp ${vTK} ${vTK} 100
fix fTHERMO all nvt temp 298.15 ${vTK} 100
fix fTHERMO all nvt temp 298.15 298.15 100

# print settings
thermo 1000
thermo_style custom step etotal ke pe temp press vol density
# trajectory output
dump dEQUI all custom 1000 equi.lammpstrj id element xu yu zu
dump_modify dEQUI element H O sort id

# equilibration
# 1 ns
run 1000000
PPPM initialization ...
  using 12-bit tables for long-range coulomb (src/kspace.cpp:342)
  G vector (1/distance) = 0.31260513
  grid = 12 12 12
  stencil order = 5
  estimated absolute RMS force accuracy = 0.0021455329
  estimated relative force accuracy = 6.4612085e-06
  using double precision FFTW3
  3d grid and FFT values/proc = 6859 1728
Generated 1 of 1 mixed pair_coeff terms from geometric mixing rule
Per MPI rank memory allocation (min/avg/max) = 9.76 | 9.76 | 9.76 Mbytes
   Step         TotEng         KinEng         PotEng          Temp          Press          Volume        Density
         0  -840.89429      112.86852     -953.76281      298.15        -9079.5624      1920.3708      0.9969611
      1000  -627.80423      121.43345     -749.23769      320.77485     -3434.4145      1920.3708      0.9969611
      2000  -633.70101      118.56884     -752.26985      313.20778      851.375        1920.3708      0.9969611
      3000  -633.19718      113.73022     -746.9274       300.42625      1662.9808      1920.3708      0.9969611
      4000  -619.67619      109.70748     -729.38368      289.7999      -1336.8584      1920.3708      0.9969611
      5000  -623.37481      112.12594     -735.50075      296.18842      2253.5564      1920.3708      0.9969611
      6000  -640.31345      108.68275     -748.9962       287.09301     -767.99436      1920.3708      0.9969611
      7000  -639.55788      104.88932     -744.4472       277.0724      -22.492886      1920.3708      0.9969611
      8000  -632.50097      106.36652     -738.8675       280.97452      413.70227      1920.3708      0.9969611
      9000  -649.20056      106.46456     -755.66512      281.23348      194.14501      1920.3708      0.9969611
     10000  -653.67574      107.12175     -760.7975       282.96951      1833.4645      1920.3708      0.9969611
     11000  -648.98896      115.13196     -764.12092      304.12904     -1516.4613      1920.3708      0.9969611
     12000  -643.80485      115.77386     -759.57871      305.82465      497.82155      1920.3708      0.9969611
     13000  -666.95318      103.58533     -770.53851      273.62781     -3250.0541      1920.3708      0.9969611
     14000  -625.62524      116.85063     -742.47587      308.66902     -216.68388      1920.3708      0.9969611
     15000  -643.906        105.44184     -749.34784      278.5319      -755.58502      1920.3708      0.9969611
     16000  -596.46191      127.74835     -724.21026      337.45609      502.17588      1920.3708      0.9969611
     17000  -645.48643      117.20874     -762.69517      309.61497     -2567.9171      1920.3708      0.9969611
     18000  -637.34195      107.9108      -745.25275      285.05382     -2157.5613      1920.3708      0.9969611
     19000  -641.16966      109.52572     -750.69537      289.31975     -1301.257       1920.3708      0.9969611
     20000  -630.3188       111.11323     -741.43203      293.51328      2940.6161      1920.3708      0.9969611
     21000  -638.90066      107.16981     -746.07047      283.09646     -598.11955      1920.3708      0.9969611
     22000  -635.95511      108.9642      -744.91931      287.83647     -1877.7658      1920.3708      0.9969611
     23000  -624.37243      121.30533     -745.67776      320.43641      3226.4477      1920.3708      0.9969611
     24000  -626.81507      116.63867     -743.45374      308.1091       1805.702       1920.3708      0.9969611
     25000  -653.62055      119.72635     -773.3469       316.26543     -2805.5442      1920.3708      0.9969611
     26000  -617.80853      105.1551      -722.96363      277.77447      433.31189      1920.3708      0.9969611
     27000  -624.20267      109.39653     -733.59919      288.97848     -1357.5935      1920.3708      0.9969611
     28000  -638.55649      112.40226     -750.95875      296.91834      389.41475      1920.3708      0.9969611
     29000  -640.92631      110.78346     -751.70976      292.64216     -1679.4009      1920.3708      0.9969611
     30000  -618.50624      112.08724     -730.59348      296.08619     -956.94711      1920.3708      0.9969611
     31000  -653.88887      108.17539     -762.06426      285.75277     -711.14123      1920.3708      0.9969611
     32000  -626.55898      118.66574     -745.22472      313.46376      4015.3078      1920.3708      0.9969611
     33000  -653.18804      113.21706     -766.40511      299.0707       880.84375      1920.3708      0.9969611
     34000  -629.29606      111.7034      -740.99946      295.07225      2597.9646      1920.3708      0.9969611
     35000  -651.02322      103.4482      -754.47142      273.26557      2400.2789      1920.3708      0.9969611
     36000  -622.99647      118.92854     -741.92501      314.15796      1611.7162      1920.3708      0.9969611
     37000  -618.02457      121.80526     -739.82982      321.757        1470.6946      1920.3708      0.9969611
     38000  -638.82684      95.741498     -734.56834      252.90778      1929.3467      1920.3708      0.9969611
     39000  -609.87846      129.42425     -739.30271      341.8831      -740.15873      1920.3708      0.9969611
     40000  -629.03312      120.39695     -749.43007      318.03687     -2733.6049      1920.3708      0.9969611
     41000  -611.37725      109.98405     -721.36131      290.53047      110.01593      1920.3708      0.9969611
     42000  -616.22578      120.281       -736.50677      317.73056      800.61867      1920.3708      0.9969611
     43000  -625.848        107.38274     -733.23074      283.65893     -2058.4867      1920.3708      0.9969611
     44000  -621.80286      115.03645     -736.8393       303.87673      2364.8537      1920.3708      0.9969611
     45000  -641.42748      116.87826     -758.30574      308.74201     -562.63946      1920.3708      0.9969611
     46000  -648.4553       102.22126     -750.67657      270.02453     -357.25704      1920.3708      0.9969611
     47000  -626.71309      120.31972     -747.03281      317.83285      2794.6596      1920.3708      0.9969611
     48000  -615.01751      124.73317     -739.75068      329.49128     -414.00707      1920.3708      0.9969611
     49000  -625.33476      104.93978     -730.27454      277.20569      545.11579      1920.3708      0.9969611
     50000  -629.08713      103.45369     -732.54081      273.28006      1250.0488      1920.3708      0.9969611
     51000  -627.85413      118.4257      -746.27983      312.82966     -269.2509       1920.3708      0.9969611
     52000  -634.93934      105.78163     -740.72096      279.42948     -2393.5227      1920.3708      0.9969611
     53000  -647.84312      107.68314     -755.52626      284.45246     -1869.9679      1920.3708      0.9969611
     54000  -638.45971      112.22459     -750.6843       296.44901      628.40244      1920.3708      0.9969611
     55000  -620.19361      119.56526     -739.75887      315.8399       766.08186      1920.3708      0.9969611
     56000  -627.80139      110.98409     -738.78549      293.17215     -1404.5998      1920.3708      0.9969611
     57000  -644.45949      120.54584     -765.00532      318.43016     -589.43207      1920.3708      0.9969611
     58000  -649.84087      102.2309      -752.07177      270.05        -273.40176      1920.3708      0.9969611
     59000  -633.07132      113.59893     -746.67025      300.07943      589.59018      1920.3708      0.9969611
     60000  -629.17049      121.08093     -750.25142      319.84364      854.07532      1920.3708      0.9969611
     61000  -624.51198      117.87328     -742.38526      311.37043      1841.4232      1920.3708      0.9969611
     62000  -618.86547      120.76885     -739.63431      319.01925      1500.4816      1920.3708      0.9969611
     63000  -617.3961       124.01933     -741.41543      327.60562      701.74102      1920.3708      0.9969611
     64000  -642.12465      102.88488     -745.00953      271.77751     -298.5388       1920.3708      0.9969611
     65000  -641.39224      113.18021     -754.57246      298.97336      1502.4735      1920.3708      0.9969611
     66000  -633.65377      117.57137     -751.22515      310.57291      78.932421      1920.3708      0.9969611
     67000  -616.50185      110.73898     -727.24082      292.52467     -754.17683      1920.3708      0.9969611
     68000  -628.92309      120.45576     -749.37885      318.19222      3599.4378      1920.3708      0.9969611
     69000  -641.43507      109.03469     -750.46976      288.02268      3403.1816      1920.3708      0.9969611
     70000  -626.79152      118.98859     -745.78011      314.31658     -2443.0593      1920.3708      0.9969611
     71000  -644.24514      100.90363     -745.14877      266.54392      1222.4183      1920.3708      0.9969611
     72000  -632.73422      107.89182     -740.62604      285.0037      -1014.5907      1920.3708      0.9969611
     73000  -620.91828      114.13955     -735.05783      301.50752      1318.2555      1920.3708      0.9969611
     74000  -622.21396      128.15117     -750.36512      338.52016     -873.94985      1920.3708      0.9969611
     75000  -618.60004      110.25407     -728.85412      291.24375      2416.6504      1920.3708      0.9969611
     76000  -633.93377      109.28341     -743.21718      288.67969      627.05961      1920.3708      0.9969611
     77000  -636.62412      109.67483     -746.29896      289.71365     -1173.8969      1920.3708      0.9969611
     78000  -648.22211      108.97653     -757.19865      287.86904     -1366.6469      1920.3708      0.9969611
     79000  -634.1493       111.20634     -745.35564      293.75924      120.87545      1920.3708      0.9969611
     80000  -632.17825      111.60479     -743.78303      294.81175     -2176.4575      1920.3708      0.9969611
     81000  -621.5592       109.44439     -731.00359      289.10491      2635.9297      1920.3708      0.9969611
     82000  -631.32901      105.6472      -736.97622      279.07439     -1262.9931      1920.3708      0.9969611
     83000  -642.19382      115.41249     -757.60631      304.87008     -1372.3896      1920.3708      0.9969611
     84000  -639.68172      115.25652     -754.93824      304.45807     -1301.0022      1920.3708      0.9969611
     85000  -640.33148      115.94988     -756.28136      306.28962     -2026.033       1920.3708      0.9969611
     86000  -633.00164      112.92233     -745.92397      298.29213      2277.5241      1920.3708      0.9969611
     87000  -630.80613      104.37505     -735.18118      275.71392     -2049.6952      1920.3708      0.9969611
     88000  -647.11887      102.27039     -749.38926      270.15429      1544.4665      1920.3708      0.9969611
     89000  -627.82802      125.70829     -753.53631      332.06715     -240.20772      1920.3708      0.9969611
     90000  -642.76344      110.41491     -753.17835      291.66861     -263.77269      1920.3708      0.9969611
     91000  -644.12039      104.28148     -748.40187      275.46674      1197.8505      1920.3708      0.9969611
     92000  -659.16607      104.09533     -763.2614       274.97501      2396.8434      1920.3708      0.9969611
     93000  -644.4461       104.92459     -749.37069      277.16557     -2026.7694      1920.3708      0.9969611
     94000  -636.9556       112.76462     -749.72021      297.87552     -947.02327      1920.3708      0.9969611
     95000  -643.81295      105.05219     -748.86514      277.50262     -797.19796      1920.3708      0.9969611
     96000  -636.38587      112.22515     -748.61103      296.4505      -1343.345       1920.3708      0.9969611
     97000  -658.21661      105.22781     -763.44442      277.96655     -1084.9809      1920.3708      0.9969611
     98000  -636.58739      106.64969     -743.23709      281.72254      1351.7256      1920.3708      0.9969611
     99000  -615.70183      105.47851     -721.18033      278.62876     -249.52038      1920.3708      0.9969611
    100000  -619.12614      103.81647     -722.9426       274.23837      1219.3377      1920.3708      0.9969611
    101000  -630.33735      106.28702     -736.62437      280.76451     -588.08359      1920.3708      0.9969611
    102000  -636.50553      115.45737     -751.96289      304.98861      223.57108      1920.3708      0.9969611
    103000  -643.69314      115.93487     -759.62802      306.24998     -542.02668      1920.3708      0.9969611
    104000  -629.66006      114.09566     -743.75572      301.39156     -709.7714       1920.3708      0.9969611
    105000  -637.60309      107.31997     -744.92305      283.49311      1648.039       1920.3708      0.9969611
    106000  -645.51594      116.80539     -762.32134      308.54951      642.13571      1920.3708      0.9969611
    107000  -648.31702      108.05155     -756.36857      285.42564      1611.766       1920.3708      0.9969611
    108000  -645.46013      122.94697     -768.40711      324.77293      3730.9272      1920.3708      0.9969611
    109000  -615.61817      117.16228     -732.78046      309.49227     -104.34868      1920.3708      0.9969611
    110000  -641.74684      104.39616     -746.143        275.76967     -931.09684      1920.3708      0.9969611
    111000  -625.19965      99.421756     -724.62141      262.62944      2538.5568      1920.3708      0.9969611
    112000  -637.89944      113.46796     -751.3674       299.73345      2217.4481      1920.3708      0.9969611
    113000  -633.22725      114.47419     -747.70144      302.39148     -1008.4739      1920.3708      0.9969611
    114000  -626.49303      108.86194     -735.35498      287.56635     -954.55127      1920.3708      0.9969611
    115000  -642.59728      102.60798     -745.20525      271.04606     -2368.6765      1920.3708      0.9969611
    116000  -607.06413      109.3504      -716.41453      288.85663      1999.7637      1920.3708      0.9969611
    117000  -620.01661      118.08524     -738.10184      311.93031      1220.1381      1920.3708      0.9969611
    118000  -644.04615      113.5711      -757.61725      300.00591      68.46768       1920.3708      0.9969611
    119000  -631.9437       116.41276     -748.35647      307.51236     -521.83799      1920.3708      0.9969611
    120000  -664.73903      98.834956     -763.57398      261.07937      1033.4249      1920.3708      0.9969611
    121000  -650.46586      111.0489      -761.51475      293.34333      1065.7809      1920.3708      0.9969611
    122000  -633.99514      110.84558     -744.84071      292.80625      1312.7597      1920.3708      0.9969611
    123000  -632.37724      109.0093      -741.38654      287.95561      862.57989      1920.3708      0.9969611
    124000  -626.46608      102.65435     -729.12043      271.16855      75.592411      1920.3708      0.9969611
    125000  -634.15095      122.06905     -756.22         322.45383     -396.7286       1920.3708      0.9969611
    126000  -642.30463      107.58858     -749.89321      284.20267      2520.0559      1920.3708      0.9969611
    127000  -654.7431       109.91311     -764.65621      290.34308      750.09832      1920.3708      0.9969611
    128000  -639.30062      116.39721     -755.69783      307.47128     -1478.5819      1920.3708      0.9969611
    129000  -632.42629      114.75389     -747.18018      303.13032     -678.49979      1920.3708      0.9969611
    130000  -613.04977      117.20909     -730.25886      309.61591      911.50325      1920.3708      0.9969611
    131000  -641.09406      114.97105     -756.06511      303.70397      311.39812      1920.3708      0.9969611
    132000  -619.4644       130.87982     -750.34422      345.7281       1111.0569      1920.3708      0.9969611
    133000  -637.11134      105.16817     -742.27951      277.80898      2523.3659      1920.3708      0.9969611
    134000  -645.36549      109.88288     -755.24837      290.26322     -862.15734      1920.3708      0.9969611
    135000  -635.25683      119.20029     -754.45712      314.87579     -568.77508      1920.3708      0.9969611
    136000  -613.44249      120.27637     -733.71886      317.71835      1136.1868      1920.3708      0.9969611
    137000  -639.5829       112.91158     -752.49447      298.26374     -151.44815      1920.3708      0.9969611
    138000  -660.73911      103.06945     -763.80856      272.26508      3042.7994      1920.3708      0.9969611
    139000  -651.10155      104.47537     -755.57692      275.9789      -1354.4652      1920.3708      0.9969611
    140000  -608.97846      106.80506     -715.78352      282.13296     -1226.8781      1920.3708      0.9969611
    141000  -601.47778      120.05457     -721.53234      317.13243      439.99142      1920.3708      0.9969611
    142000  -634.21682      117.0694      -751.28622      309.2469       2412.0474      1920.3708      0.9969611
    143000  -667.79922      89.838846     -757.63806      237.31552     -2288.5623      1920.3708      0.9969611
    144000  -633.37007      110.50386     -743.87393      291.90357      826.87557      1920.3708      0.9969611
    145000  -643.2551       99.256389     -742.51149      262.19261      1462.4121      1920.3708      0.9969611
    146000  -640.98687      107.93583     -748.9227       285.11996      987.53363      1920.3708      0.9969611
    147000  -632.22428      125.84626     -758.07054      332.43158      131.29803      1920.3708      0.9969611
    148000  -642.22646      105.17095     -747.39741      277.81633      83.059888      1920.3708      0.9969611
    149000  -627.59958      114.34671     -741.94629      302.05474      533.26304      1920.3708      0.9969611
    150000  -625.12068      111.92756     -737.04824      295.66438     -2460.3576      1920.3708      0.9969611
    151000  -620.08072      118.41344     -738.49416      312.79729     -1842.4592      1920.3708      0.9969611
    152000  -652.00933      104.05456     -756.06389      274.86732      1656.6537      1920.3708      0.9969611
    153000  -628.09633      119.0414      -747.13774      314.45609      140.67796      1920.3708      0.9969611
    154000  -640.40685      100.32943     -740.73627      265.02712     -1762.4126      1920.3708      0.9969611
    155000  -618.62902      117.7437      -736.37273      311.02813     -3786.1558      1920.3708      0.9969611
    156000  -627.56937      118.73367     -746.30304      313.64319     -67.633175      1920.3708      0.9969611
    157000  -636.95957      96.604673     -733.56425      255.18792     -981.88796      1920.3708      0.9969611
    158000  -648.77423      99.945975     -748.7202       264.0142      -679.78017      1920.3708      0.9969611
    159000  -630.02025      118.10665     -748.12691      311.98689      2741.2334      1920.3708      0.9969611
    160000  -637.51661      116.78381     -754.30042      308.49251      1914.4725      1920.3708      0.9969611
    161000  -609.64834      121.47211     -731.12044      320.87697      420.9626       1920.3708      0.9969611
    162000  -647.02163      110.60318     -757.62481      292.16594      1456.0294      1920.3708      0.9969611
    163000  -653.28472      107.20043     -760.48514      283.17733     -1366.3745      1920.3708      0.9969611
    164000  -651.31779      109.93923     -761.25702      290.41206     -4009.7392      1920.3708      0.9969611
    165000  -639.75561      106.94416     -746.69978      282.5004       1797.2911      1920.3708      0.9969611
    166000  -634.47417      117.59571     -752.06988      310.63719      517.37796      1920.3708      0.9969611
    167000  -646.67572      124.06949     -770.74521      327.73814      664.38702      1920.3708      0.9969611
    168000  -614.06644      121.21167     -735.27811      320.189        2337.8959      1920.3708      0.9969611
    169000  -659.70091      97.825591     -757.5265       258.41306     -1933.0894      1920.3708      0.9969611
    170000  -647.90997      116.72329     -764.63326      308.33263     -1199.1811      1920.3708      0.9969611
    171000  -630.04483      120.29305     -750.33789      317.76242     -2590.0046      1920.3708      0.9969611
    172000  -641.07241      123.25746     -764.32988      325.59311     -3200.7269      1920.3708      0.9969611
    173000  -656.72991      100.69758     -757.42749      265.99962     -875.68196      1920.3708      0.9969611
    174000  -623.0131       119.7494      -742.7625       316.32631     -7.1789077      1920.3708      0.9969611
    175000  -633.87829      119.98357     -753.86186      316.94488     -2796.2223      1920.3708      0.9969611
    176000  -651.48277      111.59899     -763.08176      294.79643      415.59975      1920.3708      0.9969611
    177000  -632.13336      111.01151     -743.14487      293.24457     -663.76367      1920.3708      0.9969611
    178000  -609.29783      120.85987     -730.1577       319.25971     -682.20288      1920.3708      0.9969611
    179000  -611.90908      128.26866     -740.17774      338.83053      1073.2018      1920.3708      0.9969611
    180000  -634.3668       104.37808     -738.74488      275.72191      1236.0626      1920.3708      0.9969611
    181000  -631.10423      114.75059     -745.85481      303.12161     -432.9673       1920.3708      0.9969611
    182000  -648.93188      109.07025     -758.00213      288.11661     -1300.2192      1920.3708      0.9969611
    183000  -642.30995      104.10737     -746.41731      275.0068       1453.1403      1920.3708      0.9969611
    184000  -653.69374      108.31339     -762.00713      286.11731     -245.89773      1920.3708      0.9969611
    185000  -612.10316      111.68765     -723.79081      295.03066      960.79636      1920.3708      0.9969611
    186000  -624.85198      112.91668     -737.76866      298.27721      674.08752      1920.3708      0.9969611
    187000  -652.98198      100.84745     -753.82943      266.39551     -1411.9192      1920.3708      0.9969611
    188000  -633.06644      106.65372     -739.72016      281.73316     -2617.1866      1920.3708      0.9969611
    189000  -642.81308      109.53886     -752.35194      289.35447     -301.05799      1920.3708      0.9969611
    190000  -639.00927      109.38338     -748.39265      288.94376     -1458.1875      1920.3708      0.9969611
    191000  -635.80005      115.9249      -751.72495      306.22363      338.75805      1920.3708      0.9969611
    192000  -642.70076      108.74115     -751.4419       287.24726      878.69338      1920.3708      0.9969611
    193000  -640.34217      105.07612     -745.4183       277.56584      613.35236      1920.3708      0.9969611
    194000  -646.03291      100.8248      -746.85771      266.33569     -1891.683       1920.3708      0.9969611
    195000  -649.78302      100.44483     -750.22786      265.33197     -1826.396       1920.3708      0.9969611
    196000  -631.8874       107.59618     -739.48358      284.22273     -1618.9495      1920.3708      0.9969611
    197000  -625.55761      115.97464     -741.53224      306.35502     -1118.0879      1920.3708      0.9969611
    198000  -644.82317      126.62516     -771.44833      334.48912      1347.8009      1920.3708      0.9969611
    199000  -652.37717      107.18278     -759.55995      283.13072      761.86786      1920.3708      0.9969611
    200000  -643.22957      115.25536     -758.48493      304.45499     -871.44664      1920.3708      0.9969611
    201000  -633.16173      122.38898     -755.55071      323.29894     -137.66574      1920.3708      0.9969611
    202000  -652.84324      108.93024     -761.77348      287.74677     -663.81227      1920.3708      0.9969611
    203000  -612.95951      120.41751     -733.37702      318.09118     -1091.3906      1920.3708      0.9969611
    204000  -622.71653      105.76534     -728.48188      279.38647     -1326.0515      1920.3708      0.9969611
    205000  -645.21083      106.62538     -751.83621      281.6583       909.82326      1920.3708      0.9969611
    206000  -626.8311       121.38938     -748.22048      320.65843      686.73994      1920.3708      0.9969611
    207000  -651.13886      110.15835     -761.29722      290.9909       1694.7297      1920.3708      0.9969611
    208000  -632.00607      115.65362     -747.65969      305.50704      1817.2863      1920.3708      0.9969611
    209000  -644.77125      105.97431     -750.74556      279.93846      391.76966      1920.3708      0.9969611
    210000  -645.41882      96.212686     -741.6315       254.15246      674.03394      1920.3708      0.9969611
    211000  -623.1129       104.31536     -727.42826      275.55624     -1768.6262      1920.3708      0.9969611
    212000  -621.36341      106.45967     -727.82308      281.22057     -1813.4964      1920.3708      0.9969611
    213000  -604.78063      130.85356     -735.63419      345.65871     -1634.8384      1920.3708      0.9969611
    214000  -647.91834      110.50457     -758.42292      291.90546      468.42865      1920.3708      0.9969611
    215000  -622.7903       112.44476     -735.23506      297.03061     -378.93035      1920.3708      0.9969611
    216000  -624.96985      122.76155     -747.73139      324.28311      2122.1034      1920.3708      0.9969611
    217000  -653.16907      109.21119     -762.38025      288.48889     -2069.4199      1920.3708      0.9969611
    218000  -636.26361      118.25671     -754.52032      312.38328     -1784.34        1920.3708      0.9969611
    219000  -667.26727      95.042142     -762.30941      251.06039     -438.21954      1920.3708      0.9969611
    220000  -619.09049      111.05487     -730.14535      293.3591       369.37244      1920.3708      0.9969611
    221000  -648.01607      109.38281     -757.39887      288.94224     -714.92538      1920.3708      0.9969611
    222000  -629.18992      113.43467     -742.62459      299.64552     -2350.4513      1920.3708      0.9969611
    223000  -631.71465      109.74976     -741.46441      289.91158     -765.31254      1920.3708      0.9969611
    224000  -641.03846      117.21194     -758.2504       309.62344      3597.2988      1920.3708      0.9969611
    225000  -656.8839       114.92569     -771.80959      303.58416     -357.8148       1920.3708      0.9969611
    226000  -662.38644      101.49894     -763.88538      268.11645      785.54581      1920.3708      0.9969611
    227000  -643.68525      109.73509     -753.42034      289.87283      578.36854      1920.3708      0.9969611
    228000  -668.47757      120.58858     -789.06615      318.54307     -1194.3072      1920.3708      0.9969611
    229000  -654.37251      110.46166     -764.83418      291.79211      469.08746      1920.3708      0.9969611
    230000  -638.40507      126.39315     -764.79821      333.87623      1471.7707      1920.3708      0.9969611
    231000  -636.98777      117.17276     -754.16054      309.51995     -1081.2068      1920.3708      0.9969611
    232000  -654.36523      111.47876     -765.84398      294.47885      1801.3563      1920.3708      0.9969611
    233000  -628.63052      123.80102     -752.43154      327.02895      1150.7962      1920.3708      0.9969611
    234000  -644.29655      102.37331     -746.66987      270.42618      1731.6873      1920.3708      0.9969611
    235000  -635.32922      112.36122     -747.69044      296.80992     -615.60105      1920.3708      0.9969611
    236000  -625.76461      119.75291     -745.51752      316.33558      826.62333      1920.3708      0.9969611
    237000  -645.80894      102.6999      -748.50883      271.28887     -2177.6377      1920.3708      0.9969611
    238000  -612.30484      123.81614     -736.12098      327.0689       287.28418      1920.3708      0.9969611
    239000  -606.93174      134.10279     -741.03453      354.24178      2671.8461      1920.3708      0.9969611
    240000  -631.99625      107.88533     -739.88158      284.98656     -1219.9221      1920.3708      0.9969611
    241000  -631.79994      115.6535      -747.45345      305.50672     -859.963        1920.3708      0.9969611
    242000  -620.11158      129.17776     -749.28934      341.23198      328.20992      1920.3708      0.9969611
    243000  -630.80291      110.75201     -741.55491      292.55909     -2284.3869      1920.3708      0.9969611
    244000  -634.51424      121.25442     -755.76866      320.30194      102.5522       1920.3708      0.9969611
    245000  -645.5304       102.6172      -748.1476       271.07044      250.39863      1920.3708      0.9969611
    246000  -658.78624      95.437778     -754.22402      252.10549      1204.9671      1920.3708      0.9969611
    247000  -638.553        106.46057     -745.01357      281.22296     -3346.4425      1920.3708      0.9969611
    248000  -621.89975      119.68015     -741.5799       316.14338      3140.1185      1920.3708      0.9969611
    249000  -645.34997      96.709118     -742.05909      255.46382     -772.99193      1920.3708      0.9969611
    250000  -608.85011      123.37407     -732.22417      325.90113      1060.9248      1920.3708      0.9969611
    251000  -654.75354      106.84581     -761.59935      282.2406      -235.30346      1920.3708      0.9969611
    252000  -633.82585      117.95387     -751.77973      311.5833      -797.2869       1920.3708      0.9969611
    253000  -644.1668       113.1384      -757.3052       298.8629       1115.8299      1920.3708      0.9969611
    254000  -654.77099      104.71201     -759.48299      276.604        1286.5119      1920.3708      0.9969611
    255000  -650.79216      100.13197     -750.92413      264.50552      729.88324      1920.3708      0.9969611
    256000  -626.20879      112.73171     -738.9405       297.78859     -598.43268      1920.3708      0.9969611
    257000  -618.63089      117.3579      -735.98879      310.00902      1500.2243      1920.3708      0.9969611
    258000  -635.63243      109.87569     -745.50812      290.24422     -279.58644      1920.3708      0.9969611
    259000  -613.86415      124.80641     -738.67057      329.68477      326.61533      1920.3708      0.9969611
    260000  -641.50135      103.65634     -745.15769      273.81538     -2499.5184      1920.3708      0.9969611
    261000  -611.666        124.70819     -736.37419      329.42529      1262.8201      1920.3708      0.9969611
    262000  -627.79575      117.77106     -745.56681      311.10038     -566.98466      1920.3708      0.9969611
    263000  -598.18196      129.51087     -727.69283      342.11191      3370.8244      1920.3708      0.9969611
    264000  -619.57312      117.6742      -737.24732      310.84454     -1105.1997      1920.3708      0.9969611
    265000  -614.88356      107.70606     -722.58963      284.51301      581.82432      1920.3708      0.9969611
    266000  -653.21066      109.87338     -763.08404      290.23812      1620.3625      1920.3708      0.9969611
    267000  -612.29964      120.15092     -732.45057      317.38697      484.62124      1920.3708      0.9969611
    268000  -644.07311      100.38531     -744.45843      265.17474      386.78629      1920.3708      0.9969611
    269000  -618.46316      118.00187     -736.46503      311.7101      -1274.4283      1920.3708      0.9969611
    270000  -649.6172       119.77644     -769.39363      316.39773     -157.11016      1920.3708      0.9969611
    271000  -639.28085      103.68066     -742.96151      273.87963      1733.678       1920.3708      0.9969611
    272000  -641.71011      93.548724     -735.25883      247.11542      11.094333      1920.3708      0.9969611
    273000  -618.05133      125.09617     -743.1475       330.45017      24.79634       1920.3708      0.9969611
    274000  -630.64661      101.64259     -732.2892       268.49592     -657.46084      1920.3708      0.9969611
    275000  -614.8866       118.58674     -733.47335      313.25508     -1461.8228      1920.3708      0.9969611
    276000  -630.8653       117.89743     -748.76273      311.43421     -506.38054      1920.3708      0.9969611
    277000  -640.99677      101.9927      -742.98947      269.42078      1592.4141      1920.3708      0.9969611
    278000  -648.65999      115.62297     -764.28296      305.42605     -1905.3773      1920.3708      0.9969611
    279000  -656.01888      121.0225      -777.04138      319.6893       1700.511       1920.3708      0.9969611
    280000  -650.00723      108.88887     -758.89611      287.63748      1383.0667      1920.3708      0.9969611
    281000  -632.16065      114.60556     -746.76622      302.73851      1791.4015      1920.3708      0.9969611
    282000  -638.40128      99.943729     -738.34501      264.00827     -385.754        1920.3708      0.9969611
    283000  -620.22228      117.3603      -737.58258      310.01535     -541.21787      1920.3708      0.9969611
    284000  -606.03626      111.57684     -717.6131       294.73794      1441.8696      1920.3708      0.9969611
    285000  -624.8064       110.95571     -735.76211      293.09718      2036.5478      1920.3708      0.9969611
    286000  -639.63478      102.2407      -741.87548      270.07586     -606.99501      1920.3708      0.9969611
    287000  -620.65972      121.25272     -741.91244      320.29744      1078.576       1920.3708      0.9969611
    288000  -654.59016      93.841005     -748.43117      247.8875       102.32578      1920.3708      0.9969611
    289000  -634.08061      107.94475     -742.02536      285.14351     -1392.8916      1920.3708      0.9969611
    290000  -636.86048      107.6857      -744.54618      284.45923     -2512.7392      1920.3708      0.9969611
    291000  -648.08563      104.56909     -752.65472      276.22648     -95.052708      1920.3708      0.9969611
    292000  -644.08711      124.57721     -768.66432      329.0793      -169.52316      1920.3708      0.9969611
    293000  -634.90073      107.02766     -741.92839      282.72097     -2374.0287      1920.3708      0.9969611
    294000  -634.86544      116.21032     -751.07576      306.97759      11.254028      1920.3708      0.9969611
    295000  -644.78315      110.25388     -755.03703      291.24323      3052.5292      1920.3708      0.9969611
    296000  -599.70129      123.75315     -723.45444      326.90249     -2588.4315      1920.3708      0.9969611
    297000  -615.11594      122.16628     -737.28222      322.71066      724.31009      1920.3708      0.9969611
    298000  -624.57676      101.65965     -726.23641      268.54099     -1758.4213      1920.3708      0.9969611
    299000  -627.27793      119.21851     -746.49644      314.92393      2741.3102      1920.3708      0.9969611
    300000  -643.13079      112.53263     -755.66343      297.26273     -1372.9008      1920.3708      0.9969611
    301000  -649.72414      115.204       -764.92814      304.31933      433.44869      1920.3708      0.9969611
    302000  -627.1535       107.49521     -734.64871      283.95603      569.92503      1920.3708      0.9969611
    303000  -605.13972      120.97504     -726.11477      319.56394     -1363.2596      1920.3708      0.9969611
    304000  -636.3094       110.50418     -746.81357      291.90442     -1107.9261      1920.3708      0.9969611
    305000  -639.551        99.646181     -739.19718      263.22227     -1148.6238      1920.3708      0.9969611
    306000  -638.66779      99.913596     -738.58139      263.92867      712.82286      1920.3708      0.9969611
    307000  -638.18549      103.72434     -741.90983      273.995       -201.51219      1920.3708      0.9969611
    308000  -643.6646       109.16487     -752.82947      288.36654     -1565.0977      1920.3708      0.9969611
    309000  -641.09496      104.79301     -745.88797      276.81799      1802.2874      1920.3708      0.9969611
    310000  -627.97145      118.28026     -746.25171      312.44548      1577.136       1920.3708      0.9969611
    311000  -633.88971      104.45965     -738.34936      275.93739     -1752.6528      1920.3708      0.9969611
    312000  -647.31096      114.02714     -761.3381       301.21056      1425.754       1920.3708      0.9969611
    313000  -649.44352      111.35995     -760.80347      294.165       -2778.1279      1920.3708      0.9969611
    314000  -622.39444      119.96095     -742.3554       316.88515      560.98185      1920.3708      0.9969611
    315000  -619.81251      116.49324     -736.30575      307.72495     -308.80708      1920.3708      0.9969611
    316000  -642.95706      111.89039     -754.84745      295.56618      246.16239      1920.3708      0.9969611
    317000  -635.56365      111.08343     -746.64709      293.43457     -945.20543      1920.3708      0.9969611
    318000  -629.21464      109.20587     -738.42052      288.47486      1297.317       1920.3708      0.9969611
    319000  -635.95846      106.49007     -742.44853      281.30088      226.45134      1920.3708      0.9969611
    320000  -628.78972      120.44107     -749.23079      318.15341     -1460.8445      1920.3708      0.9969611
    321000  -662.45234      104.50092     -766.95325      276.04639     -295.14053      1920.3708      0.9969611
    322000  -631.90297      115.33741     -747.24038      304.67173      2237.825       1920.3708      0.9969611
    323000  -624.95167      125.63269     -750.58437      331.86744     -1615.439       1920.3708      0.9969611
    324000  -648.11659      96.63397      -744.75056      255.26531     -968.09938      1920.3708      0.9969611
    325000  -642.87728      109.10638     -751.98366      288.21203      3410.3143      1920.3708      0.9969611
    326000  -622.24466      124.28503     -746.52969      328.3075      -500.17384      1920.3708      0.9969611
    327000  -639.15166      107.37012     -746.52178      283.62559      5.2192812      1920.3708      0.9969611
    328000  -621.24276      123.29371     -744.53648      325.68886      2069.7941      1920.3708      0.9969611
    329000  -595.04917      129.48035     -724.52951      342.03128      845.21319      1920.3708      0.9969611
    330000  -601.28316      121.79521     -723.07837      321.73046      561.71864      1920.3708      0.9969611
    331000  -628.98734      110.30191     -739.28925      291.37011      886.55088      1920.3708      0.9969611
    332000  -615.55974      112.28635     -727.84609      296.61214      1430.7669      1920.3708      0.9969611
    333000  -643.20133      117.93136     -761.13269      311.52384     -1030.2911      1920.3708      0.9969611
    334000  -653.38817      112.35697     -765.74514      296.7987       2044.7482      1920.3708      0.9969611
    335000  -639.73926      105.46421     -745.20347      278.59099      1333.8528      1920.3708      0.9969611
    336000  -631.75592      101.45977     -733.21569      268.01301      523.24196      1920.3708      0.9969611
    337000  -600.04155      113.05597     -713.09753      298.64517      1377.5552      1920.3708      0.9969611
    338000  -611.09184      118.34198     -729.43382      312.60851     -1259.9021      1920.3708      0.9969611
    339000  -635.90776      108.4196      -744.32736      286.39787      1802.9243      1920.3708      0.9969611
    340000  -622.58059      108.53736     -731.11795      286.70894      606.08483      1920.3708      0.9969611
    341000  -645.0152       108.24468     -753.25988      285.9358       341.66086      1920.3708      0.9969611
    342000  -640.85095      119.04713     -759.89808      314.47122      3405.1032      1920.3708      0.9969611
    343000  -611.68825      121.69285     -733.38109      321.46006      53.129509      1920.3708      0.9969611
    344000  -629.8215       124.78464     -754.60614      329.62726     -567.99312      1920.3708      0.9969611
    345000  -632.82782      109.27546     -742.10328      288.65868      112.92814      1920.3708      0.9969611
    346000  -626.12503      132.7387      -758.86373      350.63846     -24.333221      1920.3708      0.9969611
    347000  -642.003        116.74967     -758.75268      308.40233     -262.13656      1920.3708      0.9969611
    348000  -620.48449      114.83403     -735.31852      303.34203     -1479.4389      1920.3708      0.9969611
    349000  -649.42964      103.40638     -752.83602      273.1551       1016.9845      1920.3708      0.9969611
    350000  -628.14453      112.84649     -740.99102      298.09181      632.02546      1920.3708      0.9969611
    351000  -622.1035       131.08105     -753.18455      346.25964      478.39851      1920.3708      0.9969611
    352000  -652.81717      114.81447     -767.63163      303.29035     -2897.4191      1920.3708      0.9969611
    353000  -635.88637      115.82403     -751.71041      305.95719     -1351.6434      1920.3708      0.9969611
    354000  -634.71665      116.60867     -751.32532      308.02986     -2164.8063      1920.3708      0.9969611
    355000  -632.29453      128.67035     -760.96488      339.89163      625.17291      1920.3708      0.9969611
    356000  -635.80414      107.26751     -743.07165      283.35454      2070.2919      1920.3708      0.9969611
    357000  -622.64124      110.9931      -733.63434      293.19595     -269.79242      1920.3708      0.9969611
    358000  -638.71434      112.29088     -751.00522      296.62411     -76.552797      1920.3708      0.9969611
    359000  -600.78103      124.39996     -725.18099      328.61109      3058.0535      1920.3708      0.9969611
    360000  -641.45196      114.65949     -756.11146      302.88097      1919.636       1920.3708      0.9969611
    361000  -657.61781      99.431004     -757.04881      262.65387      563.65563      1920.3708      0.9969611
    362000  -633.80247      131.66867     -765.47114      347.81189     -25.016848      1920.3708      0.9969611
    363000  -634.28713      104.524       -738.81113      276.10738     -201.10307      1920.3708      0.9969611
    364000  -629.11882      122.49523     -751.61405      323.57963      684.1572       1920.3708      0.9969611
    365000  -634.1603       112.74249     -746.90279      297.81707      1359.8762      1920.3708      0.9969611
    366000  -641.39436      97.369003     -738.76336      257.20695     -808.09156      1920.3708      0.9969611
    367000  -630.04204      119.04688     -749.08892      314.47055     -177.995        1920.3708      0.9969611
    368000  -612.81522      119.90609     -732.72131      316.74022     -2563.6818      1920.3708      0.9969611
    369000  -652.60023      100.83648     -753.43671      266.36652     -1707.8146      1920.3708      0.9969611
    370000  -633.88852      110.20083     -744.08935      291.10311      1321.2821      1920.3708      0.9969611
    371000  -636.9198       123.3154      -760.2352       325.74616      870.97527      1920.3708      0.9969611
    372000  -655.5322       105.21102     -760.74322      277.92217     -1817.5752      1920.3708      0.9969611
    373000  -651.88844      111.16144     -763.04988      293.64064      1534.8586      1920.3708      0.9969611
    374000  -627.70634      119.25548     -746.96183      315.0216      -617.18938      1920.3708      0.9969611
    375000  -650.03196      96.313923     -746.34588      254.41988      1818.6723      1920.3708      0.9969611
    376000  -622.77601      115.65449     -738.4305       305.50932     -922.75147      1920.3708      0.9969611
    377000  -616.29643      106.9828      -723.27923      282.60247     -549.63008      1920.3708      0.9969611
    378000  -654.4378       108.73347     -763.17127      287.22699     -252.01551      1920.3708      0.9969611
    379000  -621.07683      122.17348     -743.25031      322.72968      2440.8845      1920.3708      0.9969611
    380000  -616.35077      122.92028     -739.27105      324.7024      -1187.8751      1920.3708      0.9969611
    381000  -615.43288      115.67727     -731.11014      305.5695       1649.1901      1920.3708      0.9969611
    382000  -614.28728      117.92115     -732.20843      311.49686      3190.0234      1920.3708      0.9969611
    383000  -628.73599      110.98997     -739.72596      293.18767     -1151.7009      1920.3708      0.9969611
    384000  -630.25211      88.118559     -718.37067      232.77126      1567.6863      1920.3708      0.9969611
    385000  -618.90484      118.87893     -737.78377      314.02691     -662.11663      1920.3708      0.9969611
    386000  -606.15394      140.84153     -746.99547      372.04265     -3095.2349      1920.3708      0.9969611
    387000  -645.77103      109.70398     -755.475        289.79063      2066.0156      1920.3708      0.9969611
    388000  -639.15519      105.98473     -745.13991      279.96598     -2024.8683      1920.3708      0.9969611
    389000  -639.58424      113.1968      -752.78105      299.01718     -1212.6679      1920.3708      0.9969611
    390000  -623.62249      121.31078     -744.93326      320.45081      1362.2736      1920.3708      0.9969611
    391000  -626.57192      108.22841     -734.80033      285.89283      2407.8742      1920.3708      0.9969611
    392000  -647.29285      119.52122     -766.81407      315.72357     -2020.7194      1920.3708      0.9969611
    393000  -620.59512      122.6672      -743.26232      324.03389      991.11846      1920.3708      0.9969611
    394000  -639.55098      98.08602      -737.637        259.101        307.30158      1920.3708      0.9969611
    395000  -650.28989      106.89532     -757.18521      282.37137     -1837.5421      1920.3708      0.9969611
    396000  -632.30927      120.74641     -753.05567      318.95998     -2471.3009      1920.3708      0.9969611
    397000  -637.44458      109.59059     -747.03517      289.49112     -1072.4687      1920.3708      0.9969611
    398000  -619.13191      119.51012     -738.64203      315.69423     -2161.2114      1920.3708      0.9969611
    399000  -633.25824      112.69071     -745.94895      297.68031     -918.92048      1920.3708      0.9969611
    400000  -634.94885      121.63653     -756.58538      321.31129      668.68907      1920.3708      0.9969611
    401000  -636.66673      123.46891     -760.13564      326.15166     -1476.1904      1920.3708      0.9969611
    402000  -628.67475      121.43661     -750.11137      320.7832       1698.8201      1920.3708      0.9969611
    403000  -652.84154      110.25192     -763.09345      291.23805      2458.0804      1920.3708      0.9969611
    404000  -620.45341      115.59099     -736.0444       305.34159      456.00221      1920.3708      0.9969611
    405000  -601.00914      128.67982     -729.68895      339.91663      1397.983       1920.3708      0.9969611
    406000  -634.44697      107.82473     -742.27171      284.82649      3699.0261      1920.3708      0.9969611
    407000  -609.86827      122.18245     -732.05072      322.75339      293.67084      1920.3708      0.9969611
    408000  -634.02085      117.8766      -751.89745      311.37919      883.40325      1920.3708      0.9969611
    409000  -646.90146      105.4148      -752.31626      278.46048     -1110.0901      1920.3708      0.9969611
    410000  -632.47511      118.93406     -751.40917      314.17254      2070.4939      1920.3708      0.9969611
    411000  -651.44918      103.52244     -754.97162      273.46169      753.15117      1920.3708      0.9969611
    412000  -624.65202      118.5949      -743.24691      313.27662      283.52488      1920.3708      0.9969611
    413000  -639.65029      102.24634     -741.89663      270.09079      1286.8315      1920.3708      0.9969611
    414000  -633.27822      114.77252     -748.05074      303.17954      534.45369      1920.3708      0.9969611
    415000  -610.79484      106.11569     -716.91053      280.31192     -1339.203       1920.3708      0.9969611
    416000  -646.19322      110.90087     -757.09409      292.95231     -767.96039      1920.3708      0.9969611
    417000  -658.26233      104.45455     -762.71688      275.92391     -2105.7947      1920.3708      0.9969611
    418000  -633.2671       110.49439     -743.76149      291.87858     -419.2299       1920.3708      0.9969611
    419000  -635.24256      112.38485     -747.62741      296.87236     -726.37573      1920.3708      0.9969611
    420000  -646.94047      101.10222     -748.04269      267.0685       1684.01        1920.3708      0.9969611
    421000  -643.83359      116.88097     -760.71455      308.74916      875.23113      1920.3708      0.9969611
    422000  -668.84923      106.23815     -775.08738      280.63542     -70.598017      1920.3708      0.9969611
    423000  -639.687        97.708834     -737.39583      258.10464      239.86257      1920.3708      0.9969611
    424000  -588.44508      130.96703     -719.41211      345.95846      317.4413       1920.3708      0.9969611
    425000  -635.36055      107.86341     -743.22396      284.92864      1171.9063      1920.3708      0.9969611
    426000  -640.4576       107.12498     -747.58258      282.97803     -558.58483      1920.3708      0.9969611
    427000  -614.11304      118.4486      -732.56164      312.89016     -248.11727      1920.3708      0.9969611
    428000  -625.75556      122.28516     -748.04072      323.0247       1066.2147      1920.3708      0.9969611
    429000  -622.83575      113.67628     -736.51203      300.28374     -536.39661      1920.3708      0.9969611
    430000  -640.22097      111.15953     -751.38049      293.63557     -334.86382      1920.3708      0.9969611
    431000  -609.58918      115.15699     -724.74617      304.19516     -757.82727      1920.3708      0.9969611
    432000  -623.92496      106.53031     -730.45527      281.40717     -1181.6806      1920.3708      0.9969611
    433000  -627.00229      119.18503     -746.18732      314.8355      -2735.7856      1920.3708      0.9969611
    434000  -624.71931      117.25113     -741.97044      309.72697      739.83274      1920.3708      0.9969611
    435000  -655.08798      96.812004     -751.89998      255.7356      -187.03165      1920.3708      0.9969611
    436000  -603.45111      115.10634     -718.55745      304.06136      2534.8757      1920.3708      0.9969611
    437000  -622.37698      113.81152     -736.1885       300.64099      1103.2228      1920.3708      0.9969611
    438000  -643.49098      104.85285     -748.34384      276.97605     -150.30045      1920.3708      0.9969611
    439000  -620.84008      113.12394     -733.96403      298.82471     -383.65488      1920.3708      0.9969611
    440000  -624.51202      113.86593     -738.37795      300.78471      598.85223      1920.3708      0.9969611
    441000  -620.51688      109.08419     -729.60107      288.15343      420.38363      1920.3708      0.9969611
    442000  -616.0723       113.60669     -729.67899      300.09994     -783.57517      1920.3708      0.9969611
    443000  -647.903        111.80664     -759.70963      295.34496      684.57122      1920.3708      0.9969611
    444000  -618.27989      99.407757     -717.68764      262.59246      1198.6245      1920.3708      0.9969611
    445000  -648.37174      102.62739     -750.99913      271.09734      607.81445      1920.3708      0.9969611
    446000  -622.11728      109.70609     -731.82337      289.79621     -425.83057      1920.3708      0.9969611
    447000  -642.80596      98.358192     -741.16416      259.81996      615.76571      1920.3708      0.9969611
    448000  -620.87232      118.79187     -739.66419      313.79694     -111.0651       1920.3708      0.9969611
    449000  -615.23963      114.51385     -729.75348      302.49625      775.73043      1920.3708      0.9969611
    450000  -629.46956      112.53196     -742.00152      297.26095     -1294.2486      1920.3708      0.9969611
    451000  -617.50977      119.57639     -737.08616      315.8693      -706.1731       1920.3708      0.9969611
    452000  -630.31824      123.76129     -754.07953      326.92399     -1166.1484      1920.3708      0.9969611
    453000  -612.95918      122.70936     -735.66854      324.14525      3417.5974      1920.3708      0.9969611
    454000  -631.90517      108.642       -740.54717      286.98535      374.60373      1920.3708      0.9969611
    455000  -606.59874      120.94158     -727.54032      319.47554     -2197.7365      1920.3708      0.9969611
    456000  -620.39416      114.19546     -734.58962      301.65519     -2583.8033      1920.3708      0.9969611
    457000  -648.95732      112.01373     -760.97105      295.89201     -2988.6043      1920.3708      0.9969611
    458000  -623.80225      116.97545     -740.7777       308.99873      3411.3221      1920.3708      0.9969611
    459000  -613.48978      130.60265     -744.09243      344.99592      532.27394      1920.3708      0.9969611
    460000  -640.04183      109.9951      -750.03694      290.55967     -665.98015      1920.3708      0.9969611
    461000  -639.52986      106.28181     -745.81167      280.75074      1186.3911      1920.3708      0.9969611
    462000  -634.18763      113.9846      -748.17223      301.09821      1828.2301      1920.3708      0.9969611
    463000  -609.33373      117.46342     -726.79714      310.28773     -617.65177      1920.3708      0.9969611
    464000  -646.36099      122.62143     -768.98242      323.91299     -1824.4795      1920.3708      0.9969611
    465000  -623.04396      112.42514     -735.4691       296.97878     -238.80494      1920.3708      0.9969611
    466000  -641.79345      106.74825     -748.54169      281.98287     -499.44855      1920.3708      0.9969611
    467000  -646.19115      106.86947     -753.06062      282.3031       1082.7242      1920.3708      0.9969611
    468000  -617.84047      117.49253     -735.333        310.36464      1064.0676      1920.3708      0.9969611
    469000  -646.7827       105.41731     -752.2          278.4671       1768.4524      1920.3708      0.9969611
    470000  -614.76766      113.78587     -728.55353      300.57324      1380.2955      1920.3708      0.9969611
    471000  -617.71513      116.18901     -733.90414      306.9213       2213.8549      1920.3708      0.9969611
    472000  -639.04598      112.699       -751.74498      297.7022       979.2564       1920.3708      0.9969611
    473000  -595.28771      130.41841     -725.70613      344.50925      662.29516      1920.3708      0.9969611
    474000  -632.49475      111.88702     -744.38177      295.55729      359.69858      1920.3708      0.9969611
    475000  -619.12435      120.76528     -739.88963      319.00983     -490.80103      1920.3708      0.9969611
    476000  -623.66073      123.01435     -746.67507      324.9509       1542.9684      1920.3708      0.9969611
    477000  -615.96944      113.10834     -729.07778      298.7835      -540.7817       1920.3708      0.9969611
    478000  -595.43361      113.33268     -708.76629      299.37611      2921.3245      1920.3708      0.9969611
    479000  -636.02978      113.15934     -749.18912      298.91821      2537.9687      1920.3708      0.9969611
    480000  -647.35046      112.41101     -759.76147      296.94145      1314.5921      1920.3708      0.9969611
    481000  -624.41417      122.17773     -746.59189      322.74091      346.16633      1920.3708      0.9969611
    482000  -645.39623      112.08337     -757.4796       296.07597      185.22179      1920.3708      0.9969611
    483000  -653.38231      104.52067     -757.90297      276.09856     -883.86161      1920.3708      0.9969611
    484000  -657.36821      108.69034     -766.05856      287.11306     -1718.2098      1920.3708      0.9969611
    485000  -634.94789      120.54357     -755.49146      318.42417     -1873.0498      1920.3708      0.9969611
    486000  -656.57693      107.72078     -764.29771      284.55189     -316.90059      1920.3708      0.9969611
    487000  -637.94231      113.60493     -751.54724      300.09526     -3067.6466      1920.3708      0.9969611
    488000  -622.29577      118.33697     -740.63274      312.59528      2562.1645      1920.3708      0.9969611
    489000  -648.36927      106.12114     -754.49042      280.32633     -146.42594      1920.3708      0.9969611
    490000  -645.14144      106.89535     -752.03679      282.37145     -742.25216      1920.3708      0.9969611
    491000  -651.19758      103.58475     -754.78233      273.62628     -1361.9642      1920.3708      0.9969611
    492000  -621.65819      105.93632     -727.59451      279.83811     -370.10191      1920.3708      0.9969611
    493000  -640.5692       106.53858     -747.10778      281.42903      199.74044      1920.3708      0.9969611
    494000  -622.61722      128.18038     -750.7976       338.59734     -381.23508      1920.3708      0.9969611
    495000  -653.56692      101.74167     -755.30859      268.75765     -1079.0253      1920.3708      0.9969611
    496000  -646.12814      112.7932      -758.92135      297.95104     -2369.3915      1920.3708      0.9969611
    497000  -632.31189      109.55281     -741.8647       289.39133      1647.1904      1920.3708      0.9969611
    498000  -623.94537      118.42993     -742.3753       312.84084      922.91869      1920.3708      0.9969611
    499000  -625.12929      108.67222     -733.80151      287.06518     -2256.3656      1920.3708      0.9969611
    500000  -638.80882      118.31156     -757.12038      312.52817     -102.98469      1920.3708      0.9969611
    501000  -656.18012      109.3057      -765.48582      288.73857      360.63955      1920.3708      0.9969611
    502000  -617.77004      108.27204     -726.04208      286.00808      618.00655      1920.3708      0.9969611
    503000  -629.09256      114.12889     -743.22145      301.47935      297.00907      1920.3708      0.9969611
    504000  -630.53511      111.29781     -741.83292      294.00086      2656.8336      1920.3708      0.9969611
    505000  -618.41513      118.77824     -737.19338      313.76094      2310.1745      1920.3708      0.9969611
    506000  -642.17224      112.52445     -754.69669      297.2411       957.42596      1920.3708      0.9969611
    507000  -648.18355      113.47331     -761.65686      299.7476      -633.96056      1920.3708      0.9969611
    508000  -640.71027      105.24035     -745.95063      277.99967      52.56204       1920.3708      0.9969611
    509000  -619.61648      113.01515     -732.63163      298.53732     -1437.4833      1920.3708      0.9969611
    510000  -654.05105      107.46734     -761.51839      283.88241     -34.94559       1920.3708      0.9969611
    511000  -622.78634      113.88154     -736.66787      300.82595      4524.6901      1920.3708      0.9969611
    512000  -617.47009      113.71731     -731.1874       300.39212      238.42819      1920.3708      0.9969611
    513000  -637.01382      111.8154      -748.82922      295.3681       2556.8904      1920.3708      0.9969611
    514000  -638.38107      109.47902     -747.86009      289.1964      -1110.4152      1920.3708      0.9969611
    515000  -619.08123      109.88081     -728.96204      290.25774      2381.4827      1920.3708      0.9969611
    516000  -629.34203      118.12267     -747.4647       312.0292      -149.42363      1920.3708      0.9969611
    517000  -619.65276      111.52334     -731.17609      294.5966       772.59609      1920.3708      0.9969611
    518000  -620.78454      122.12521     -742.90976      322.60219     -89.473837      1920.3708      0.9969611
    519000  -640.57282      111.55116     -752.12398      294.6701      -577.46508      1920.3708      0.9969611
    520000  -662.99561      115.09297     -778.08858      304.02603      2549.2408      1920.3708      0.9969611
    521000  -620.51606      116.13734     -736.6534       306.78481     -1616.3141      1920.3708      0.9969611
    522000  -628.35128      114.38606     -742.73734      302.15867     -1154.413       1920.3708      0.9969611
    523000  -633.95152      119.8941      -753.84562      316.70855     -189.29594      1920.3708      0.9969611
    524000  -649.59756      103.23394     -752.8315       272.69958      176.73315      1920.3708      0.9969611
    525000  -633.82005      115.70765     -749.5277       305.64975      821.02485      1920.3708      0.9969611
    526000  -643.78217      107.71779     -751.49996      284.54398      1797.2621      1920.3708      0.9969611
    527000  -663.69488      104.78069     -768.47557      276.78543     -1061.6449      1920.3708      0.9969611
    528000  -623.45142      122.04713     -745.49855      322.39593      1410.9046      1920.3708      0.9969611
    529000  -605.16013      129.42407     -734.5842       341.88261      177.30368      1920.3708      0.9969611
    530000  -617.48799      123.87533     -741.36332      327.22525     -1337.9104      1920.3708      0.9969611
    531000  -629.15921      117.81444     -746.97365      311.21498     -1880.1221      1920.3708      0.9969611
    532000  -638.49752      107.83212     -746.32965      284.846       -1346.1299      1920.3708      0.9969611
    533000  -606.77625      118.0655      -724.84175      311.87818      272.29835      1920.3708      0.9969611
    534000  -656.49664      106.92897     -763.42561      282.46026      1006.6516      1920.3708      0.9969611
    535000  -620.4149       108.98112     -729.39602      287.88117      844.38398      1920.3708      0.9969611
    536000  -627.24187      116.47019     -743.71207      307.66407     -1348.7478      1920.3708      0.9969611
    537000  -633.16131      111.93007     -745.09138      295.67102      1587.7454      1920.3708      0.9969611
    538000  -631.26391      115.35568     -746.61958      304.71999     -2644.3311      1920.3708      0.9969611
    539000  -594.35614      137.26006     -731.61619      362.58193      369.21316      1920.3708      0.9969611
    540000  -626.38723      112.90568     -739.2929       298.24815      475.20409      1920.3708      0.9969611
    541000  -640.35091      110.73836     -751.08927      292.52303     -1088.2454      1920.3708      0.9969611
    542000  -616.92056      120.00804     -736.92861      317.00954      1216.9855      1920.3708      0.9969611
    543000  -584.56669      129.98718     -714.55387      343.37013     -214.39258      1920.3708      0.9969611
    544000  -622.40243      105.08534     -727.48776      277.59018      3045.2692      1920.3708      0.9969611
    545000  -646.27181      120.03437     -766.30618      317.07908     -1645.333       1920.3708      0.9969611
    546000  -622.121        118.33923     -740.46023      312.60125     -528.96029      1920.3708      0.9969611
    547000  -614.29256      126.22051     -740.51307      333.4202      -64.857012      1920.3708      0.9969611
    548000  -648.83933      103.28855     -752.12788      272.84385     -1153.7444      1920.3708      0.9969611
    549000  -655.3667       112.68395     -768.05065      297.66244      2186.2043      1920.3708      0.9969611
    550000  -659.54689      107.20821     -766.75509      283.19789      848.11541      1920.3708      0.9969611
    551000  -625.04805      129.67311     -754.72115      342.54047     -2166.0307      1920.3708      0.9969611
    552000  -642.91195      107.40752     -750.31947      283.72439      1122.2875      1920.3708      0.9969611
    553000  -650.61851      113.84181     -764.46033      300.72102     -1106.8772      1920.3708      0.9969611
    554000  -650.00125      108.33456     -758.33581      286.17322      1676.9242      1920.3708      0.9969611
    555000  -645.74659      106.90838     -752.65496      282.40587     -2304.7903      1920.3708      0.9969611
    556000  -648.1335       104.98463     -753.11813      277.32416      71.1663        1920.3708      0.9969611
    557000  -610.36453      115.28137     -725.6459       304.52371     -2822.6574      1920.3708      0.9969611
    558000  -621.21422      110.94532     -732.15954      293.06973     -427.44962      1920.3708      0.9969611
    559000  -646.97488      98.430227     -745.40511      260.01025      2047.2773      1920.3708      0.9969611
    560000  -636.62343      114.95193     -751.57536      303.65347      794.34772      1920.3708      0.9969611
    561000  -636.21332      116.99919     -753.21251      309.06143     -1175.9832      1920.3708      0.9969611
    562000  -658.81989      110.08905     -768.90894      290.80784     -2252.8341      1920.3708      0.9969611
    563000  -639.4995       101.65229     -741.15179      268.52155     -1080.7047      1920.3708      0.9969611
    564000  -627.77154      102.84973     -730.62127      271.68468     -822.60058      1920.3708      0.9969611
    565000  -648.68353      98.397324     -747.08085      259.92333      893.24863      1920.3708      0.9969611
    566000  -643.21205      108.44472     -751.65677      286.46422      321.97833      1920.3708      0.9969611
    567000  -618.99502      116.22296     -735.21798      307.01099     -2891.3498      1920.3708      0.9969611
    568000  -612.24679      124.47181     -736.7186       328.80088     -421.68237      1920.3708      0.9969611
    569000  -639.92284      111.49757     -751.42042      294.52854      1240.9859      1920.3708      0.9969611
    570000  -643.92458      109.91865     -753.84323      290.35771     -1627.2618      1920.3708      0.9969611
    571000  -610.79932      125.37433     -736.17365      331.18496      892.84331      1920.3708      0.9969611
    572000  -633.38622      109.56727     -742.95348      289.42951      4048.2099      1920.3708      0.9969611
    573000  -624.86621      124.55763     -749.42384      329.02758     -492.06141      1920.3708      0.9969611
    574000  -604.82026      124.32121     -729.14147      328.40307      2643.4708      1920.3708      0.9969611
    575000  -613.76817      128.2762      -742.04437      338.85044      372.24556      1920.3708      0.9969611
    576000  -652.42532      116.87185     -769.29717      308.72508     -1384.8833      1920.3708      0.9969611
    577000  -647.12201      108.45267     -755.57469      286.48523      3136.6108      1920.3708      0.9969611
    578000  -647.90542      110.80161     -758.70703      292.6901      -1575.8004      1920.3708      0.9969611
    579000  -615.16834      108.70672     -723.87506      287.15632      134.17399      1920.3708      0.9969611
    580000  -630.91299      109.62024     -740.53323      289.56944     -737.7325       1920.3708      0.9969611
    581000  -601.85863      125.62279     -727.48142      331.84129      1426.7717      1920.3708      0.9969611
    582000  -639.96216      112.3036      -752.26576      296.65772     -872.36323      1920.3708      0.9969611
    583000  -659.84859      97.66587      -757.51446      257.99115      553.34874      1920.3708      0.9969611
    584000  -631.41781      107.85194     -739.26975      284.89835     -537.53675      1920.3708      0.9969611
    585000  -629.08392      129.44285     -758.52676      341.93222      166.04589      1920.3708      0.9969611
    586000  -621.8002       126.29101     -748.09121      333.60643      385.2677       1920.3708      0.9969611
    587000  -629.99244      119.2887      -749.28114      315.10934      854.05569      1920.3708      0.9969611
    588000  -635.57398      111.33265     -746.90663      294.09288     -1570.8899      1920.3708      0.9969611
    589000  -629.38067      116.55201     -745.93268      307.88018      2968.9587      1920.3708      0.9969611
    590000  -643.0515       112.51606     -755.56756      297.21894     -1240.7854      1920.3708      0.9969611
    591000  -635.86721      116.97942     -752.84663      309.00923     -170.53486      1920.3708      0.9969611
    592000  -667.90009      107.15763     -775.05772      283.06428     -677.24393      1920.3708      0.9969611
    593000  -640.09676      106.72196     -746.81871      281.91342      3543.8797      1920.3708      0.9969611
    594000  -645.11291      107.3999      -752.51281      283.70425      209.64414      1920.3708      0.9969611
    595000  -625.42476      128.05781     -753.48257      338.27355     -85.536324      1920.3708      0.9969611
    596000  -652.37121      115.20064     -767.57185      304.31045     -817.60408      1920.3708      0.9969611
    597000  -610.54309      113.7318      -724.27489      300.43042     -2145.1332      1920.3708      0.9969611
    598000  -627.25128      114.83914     -742.09042      303.35554     -822.59853      1920.3708      0.9969611
    599000  -640.53114      99.088788     -739.61993      261.74988      2191.5232      1920.3708      0.9969611
    600000  -629.20346      120.21841     -749.42187      317.56525     -1499.5509      1920.3708      0.9969611
    601000  -621.83501      116.0358      -737.87081      306.51659     -3504.3485      1920.3708      0.9969611
    602000  -624.86819      115.65142     -740.51961      305.50123     -455.67181      1920.3708      0.9969611
    603000  -626.93675      110.66824     -737.605        292.33781     -169.75502      1920.3708      0.9969611
    604000  -669.43261      100.71458     -770.14719      266.04452     -1547.5092      1920.3708      0.9969611
    605000  -614.3032       101.52285     -715.82604      268.17961      2990.6452      1920.3708      0.9969611
    606000  -604.38344      118.95554     -723.33898      314.22929     -1418.1736      1920.3708      0.9969611
    607000  -617.20613      114.13904     -731.34517      301.50616      689.51708      1920.3708      0.9969611
    608000  -628.08482      123.46892     -751.55374      326.15169     -613.7302       1920.3708      0.9969611
    609000  -634.81703      109.64337     -744.4604       289.63053     -778.29592      1920.3708      0.9969611
    610000  -630.25276      114.65117     -744.90393      302.859        233.54946      1920.3708      0.9969611
    611000  -659.30338      121.16613     -780.4695       320.0687       2816.4864      1920.3708      0.9969611
    612000  -635.26756      108.42766     -743.69521      286.41915      966.87321      1920.3708      0.9969611
    613000  -665.01027      97.224681     -762.23495      256.82571     -17.393216      1920.3708      0.9969611
    614000  -622.24289      107.55095     -729.79384      284.10326      297.32024      1920.3708      0.9969611
    615000  -613.0378       127.27821     -740.31602      336.21419      1008.577       1920.3708      0.9969611
    616000  -642.19404      109.515       -751.70903      289.29144      20.058688      1920.3708      0.9969611
    617000  -645.85624      112.93203     -758.78826      298.31775      2173.7416      1920.3708      0.9969611
    618000  -663.80022      102.52207     -766.32228      270.81913     -1440.4939      1920.3708      0.9969611
    619000  -602.32557      128.59553     -730.9211       339.69397     -2585.3987      1920.3708      0.9969611
    620000  -629.05655      97.394374     -726.45093      257.27397      304.94906      1920.3708      0.9969611
    621000  -624.90308      113.88722     -738.7903       300.84096      4207.6624      1920.3708      0.9969611
    622000  -627.39819      112.7283      -740.12649      297.7796       1258.4165      1920.3708      0.9969611
    623000  -638.01396      118.14511     -756.15907      312.08848     -246.53151      1920.3708      0.9969611
    624000  -638.14009      110.61533     -748.75542      292.19803     -1322.8282      1920.3708      0.9969611
    625000  -657.89196      112.74268     -770.63464      297.81759     -262.8051       1920.3708      0.9969611
    626000  -670.72124      102.33372     -773.05495      270.32158     -1162.1197      1920.3708      0.9969611
    627000  -622.42554      128.14491     -750.57045      338.50363      531.97954      1920.3708      0.9969611
    628000  -624.55517      116.35402     -740.90919      307.35719      3143.7626      1920.3708      0.9969611
    629000  -650.48476      109.51604     -760.0008       289.29419      762.25328      1920.3708      0.9969611
    630000  -625.54189      107.76884     -733.31074      284.67885      1552.0317      1920.3708      0.9969611
    631000  -630.21584      111.63706     -741.85289      294.897       -1606.174       1920.3708      0.9969611
    632000  -606.4732       134.72184     -741.19505      355.87706     -159.57651      1920.3708      0.9969611
    633000  -615.27806      115.28802     -730.56607      304.54127      1464.841       1920.3708      0.9969611
    634000  -647.82121      93.755929     -741.57714      247.66277     -1466.8326      1920.3708      0.9969611
    635000  -635.07764      113.19482     -748.27246      299.01195     -98.064935      1920.3708      0.9969611
    636000  -616.70816      112.51387     -729.22203      297.21317      1389.8677      1920.3708      0.9969611
    637000  -652.80032      107.29364     -760.09396      283.42356      800.38799      1920.3708      0.9969611
    638000  -640.13321      113.4943      -753.62751      299.80303     -80.699754      1920.3708      0.9969611
    639000  -646.21584      119.70055     -765.91639      316.19728      982.73882      1920.3708      0.9969611
    640000  -665.83803      99.501913     -765.33994      262.84118     -2671.9793      1920.3708      0.9969611
    641000  -630.77778      118.82017     -749.59795      313.87169     -1111.0527      1920.3708      0.9969611
    642000  -654.36337      109.45398     -763.81736      289.13026     -898.26199      1920.3708      0.9969611
    643000  -632.0835       121.00908     -753.09258      319.65384     -791.44397      1920.3708      0.9969611
    644000  -641.99726      108.44326     -750.44053      286.46037     -1630.5025      1920.3708      0.9969611
    645000  -610.76433      132.69604     -743.46037      350.52577     -1895.5353      1920.3708      0.9969611
    646000  -629.02298      106.35661     -735.3796       280.94835     -258.48479      1920.3708      0.9969611
    647000  -647.83345      108.89284     -756.72629      287.64796      1577.6232      1920.3708      0.9969611
    648000  -624.21328      98.347322     -722.56061      259.79125      1026.1106      1920.3708      0.9969611
    649000  -632.46693      117.48223     -749.94916      310.33742      0.46423269     1920.3708      0.9969611
    650000  -628.86595      115.2815      -744.14745      304.52405      311.24507      1920.3708      0.9969611
    651000  -618.7829       107.30657     -726.08946      283.45772     -962.84955      1920.3708      0.9969611
    652000  -609.19235      125.72355     -734.91591      332.10746     -2716.154       1920.3708      0.9969611
    653000  -659.28066      108.96577     -768.24643      287.84062     -962.82357      1920.3708      0.9969611
    654000  -629.3254       114.70736     -744.03276      303.00741      1324.5554      1920.3708      0.9969611
    655000  -660.12015      117.27945     -777.3996       309.80178     -131.9993       1920.3708      0.9969611
[...]
   2841000  -609.56438      103.70323     -713.26761      273.93925      1092.125       1920.3708      0.9969611
   2842000  -613.0904       114.26726     -727.35766      301.84487     -1509.7835      1920.3708      0.9969611
   2843000  -631.96894      116.37316     -748.3421       307.40775     -1446.6307      1920.3708      0.9969611
   2844000  -636.69777      105.35156     -742.04934      278.29344     -1840.478       1920.3708      0.9969611
   2845000  -611.77189      120.39449     -732.16638      318.03036     -597.04788      1920.3708      0.9969611
   2846000  -614.62112      127.98844     -742.60956      338.09032     -1958.2199      1920.3708      0.9969611
   2847000  -631.72736      112.63969     -744.36705      297.54552     -791.10687      1920.3708      0.9969611
   2848000  -640.9635       103.31427     -744.27777      272.91178     -1782.7719      1920.3708      0.9969611
   2849000  -634.33282      114.65055     -748.98337      302.85735      1565.4106      1920.3708      0.9969611
   2850000  -631.6231       108.43622     -740.05932      286.44176     -292.03014      1920.3708      0.9969611
   2851000  -632.65166      111.9439      -744.59556      295.70754     -0.21717013     1920.3708      0.9969611
   2852000  -631.11851      94.240166     -725.35867      248.94191     -859.96048      1920.3708      0.9969611
   2853000  -642.65657      118.78311     -761.43969      313.7738      -1281.035       1920.3708      0.9969611
   2854000  -637.37789      118.76221     -756.1401       313.71858     -2795.7545      1920.3708      0.9969611
   2855000  -659.44892      99.871857     -759.32078      263.81841      1243.0902      1920.3708      0.9969611
   2856000  -656.61481      107.48229     -764.0971       283.9219      -762.02935      1920.3708      0.9969611
   2857000  -617.47528      136.87136     -754.34664      361.55516      865.82986      1920.3708      0.9969611
   2858000  -638.27541      119.0888      -757.3642       314.58128     -1130.7655      1920.3708      0.9969611
   2859000  -615.93689      125.13257     -741.06946      330.54633      1181.5257      1920.3708      0.9969611
   2860000  -627.14433      129.09223     -756.23655      341.00604     -988.74051      1920.3708      0.9969611
   2861000  -632.20235      112.61289     -744.81524      297.47473     -1548.0771      1920.3708      0.9969611
   2862000  -604.88103      130.72498     -735.60602      345.31908     -3120.2052      1920.3708      0.9969611
   2863000  -642.73488      114.7111      -757.44598      303.01729     -1933.1585      1920.3708      0.9969611
   2864000  -644.25949      120.24072     -764.50021      317.62416      232.3226       1920.3708      0.9969611
   2865000  -619.04695      121.80162     -740.84858      321.7474       1562.0255      1920.3708      0.9969611
   2866000  -638.91417      108.62526     -747.53942      286.94112     -728.406        1920.3708      0.9969611
   2867000  -631.2366       114.97236     -746.20895      303.70743      123.48512      1920.3708      0.9969611
   2868000  -630.24489      110.16861     -740.4135       291.01799      156.17211      1920.3708      0.9969611
   2869000  -656.30001      106.7214      -763.02141      281.91195      1836.9401      1920.3708      0.9969611
   2870000  -656.10059      105.72806     -761.82866      279.28799      4693.7048      1920.3708      0.9969611
   2871000  -645.56754      115.72586     -761.2934       305.69786     -1234.4976      1920.3708      0.9969611
   2872000  -652.91408      107.4089      -760.32298      283.72804     -1995.2417      1920.3708      0.9969611
   2873000  -644.94914      106.16355     -751.11269      280.43835      1050.3428      1920.3708      0.9969611
   2874000  -631.49692      111.91502     -743.41194      295.63125      2590.6102      1920.3708      0.9969611
   2875000  -623.3387       100.67422     -724.01292      265.9379      -1166.1734      1920.3708      0.9969611
   2876000  -616.29175      113.58205     -729.8738       300.03483      289.97506      1920.3708      0.9969611
   2877000  -617.19871      110.85253     -728.05124      292.82462      1711.1217      1920.3708      0.9969611
   2878000  -635.67946      108.04594     -743.7254       285.41082      929.75604      1920.3708      0.9969611
   2879000  -625.87739      118.38187     -744.25926      312.71388      744.38017      1920.3708      0.9969611
   2880000  -627.3519       113.95805     -741.30995      301.02806     -607.75119      1920.3708      0.9969611
   2881000  -624.52485      114.27948     -738.80433      301.87713      493.78631      1920.3708      0.9969611
   2882000  -636.55425      119.04603     -755.60028      314.46831      1459.5535      1920.3708      0.9969611
   2883000  -614.69039      123.7177      -738.40808      326.80885     -31.63831       1920.3708      0.9969611
   2884000  -631.72249      112.19937     -743.92186      296.38239     -146.74183      1920.3708      0.9969611
   2885000  -600.27732      126.08368     -726.361        333.05875      2133.5855      1920.3708      0.9969611
   2886000  -627.90231      101.21719     -729.11949      267.3722      -185.29912      1920.3708      0.9969611
   2887000  -633.55519      111.13037     -744.68556      293.55855     -3025.0638      1920.3708      0.9969611
   2888000  -636.81466      106.99279     -743.80745      282.62885      2810.2157      1920.3708      0.9969611
   2889000  -659.69984      104.62623     -764.32606      276.3774       1906.3195      1920.3708      0.9969611
   2890000  -653.65019      120.41138     -774.06157      318.07499      571.15615      1920.3708      0.9969611
   2891000  -632.58784      119.9512      -752.53904      316.85937      434.46238      1920.3708      0.9969611
   2892000  -652.2036       110.3795      -762.5831       291.57507      946.19342      1920.3708      0.9969611
   2893000  -637.49712      112.90369     -750.40081      298.24289      1919.8306      1920.3708      0.9969611
   2894000  -622.86242      116.97364     -739.83605      308.99395      535.86331      1920.3708      0.9969611
   2895000  -647.10531      99.704794     -746.81011      263.3771      -1535.7344      1920.3708      0.9969611
   2896000  -639.11644      115.86514     -754.98158      306.06577     -1119.9977      1920.3708      0.9969611
   2897000  -633.57379      116.44505     -750.01884      307.59765      3614.7956      1920.3708      0.9969611
   2898000  -621.856        120.70704     -742.56303      318.85598     -1398.5154      1920.3708      0.9969611
   2899000  -639.04824      115.71138     -754.75961      305.65959      504.8658       1920.3708      0.9969611
   2900000  -631.96119      108.16473     -740.12592      285.7246      -3803.4123      1920.3708      0.9969611
   2901000  -628.02891      110.11463     -738.14354      290.87542     -1494.7791      1920.3708      0.9969611
   2902000  -650.45938      109.29458     -759.75396      288.7092       1093.1337      1920.3708      0.9969611
   2903000  -635.72141      113.80771     -749.52912      300.63094     -776.49385      1920.3708      0.9969611
   2904000  -619.08536      111.32488     -730.41024      294.07238      2574.7545      1920.3708      0.9969611
   2905000  -637.48699      111.1772      -748.66419      293.68226     -1862.6007      1920.3708      0.9969611
   2906000  -641.6055       111.79091     -753.39641      295.30342     -880.5103       1920.3708      0.9969611
   2907000  -611.29127      122.83473     -734.126        324.47644      3058.5929      1920.3708      0.9969611
   2908000  -644.45804      112.01755     -756.47559      295.90211      1704.7182      1920.3708      0.9969611
   2909000  -647.04448      115.79066     -762.83514      305.86904      2094.1583      1920.3708      0.9969611
   2910000  -603.10252      122.12757     -725.23009      322.60842     -1958.3884      1920.3708      0.9969611
   2911000  -647.71932      108.02768     -755.747        285.36259     -937.92079      1920.3708      0.9969611
   2912000  -631.00708      133.91193     -764.91901      353.73762     -1763.5793      1920.3708      0.9969611
   2913000  -638.85615      120.74026     -759.59641      318.94375      338.61281      1920.3708      0.9969611
   2914000  -642.66169      104.86956     -747.53126      277.0202      -34.717712      1920.3708      0.9969611
   2915000  -650.1797       108.99952     -759.17922      287.92976      2488.0683      1920.3708      0.9969611
   2916000  -633.71193      109.64673     -743.35865      289.63941      821.0734       1920.3708      0.9969611
   2917000  -640.70201      132.96085     -773.66286      351.22527      325.32939      1920.3708      0.9969611
   2918000  -637.50501      113.26336     -750.76837      299.19298     -2091.8517      1920.3708      0.9969611
   2919000  -631.44244      103.62796     -735.07041      273.74043      131.63197      1920.3708      0.9969611
   2920000  -616.9046       121.45208     -738.35669      320.82407      589.10761      1920.3708      0.9969611
   2921000  -627.38428      133.42268     -760.80696      352.44522      1790.6685      1920.3708      0.9969611
   2922000  -665.62838      102.26218     -767.89057      270.13263      321.58666      1920.3708      0.9969611
   2923000  -639.72828      120.99808     -760.72636      319.62478     -2712.7635      1920.3708      0.9969611
   2924000  -648.21937      92.52274      -740.74211      244.40521      1093.3251      1920.3708      0.9969611
   2925000  -622.26393      109.43322     -731.69715      289.07541     -179.24225      1920.3708      0.9969611
   2926000  -600.80469      126.19513     -726.99982      333.35316     -756.17462      1920.3708      0.9969611
   2927000  -623.15204      124.31658     -747.46862      328.39084     -1116.8832      1920.3708      0.9969611
   2928000  -620.9071       123.58297     -744.49007      326.45296     -349.17006      1920.3708      0.9969611
   2929000  -622.85228      109.33882     -732.1911       288.82604      1234.4085      1920.3708      0.9969611
   2930000  -648.37181      111.94287     -760.31469      295.70484      1094.5488      1920.3708      0.9969611
   2931000  -623.57258      117.57663     -741.14921      310.58679     -284.89334      1920.3708      0.9969611
   2932000  -662.64846      108.67339     -771.32184      287.06826      1047.58        1920.3708      0.9969611
   2933000  -630.82156      118.34117     -749.16273      312.60638      1064.1969      1920.3708      0.9969611
   2934000  -620.29743      138.12328     -758.42071      364.86218      1994.5016      1920.3708      0.9969611
   2935000  -657.62269      105.0037      -762.62639      277.37453      2225.6205      1920.3708      0.9969611
   2936000  -637.72855      109.79883     -747.52738      290.04119     -1255.655       1920.3708      0.9969611
   2937000  -617.66828      119.44313     -737.11142      315.5173      -810.80682      1920.3708      0.9969611
   2938000  -634.5916       112.33552     -746.92711      296.74203      664.1124       1920.3708      0.9969611
   2939000  -631.98617      114.70817     -746.69434      303.00956      3157.2517      1920.3708      0.9969611
   2940000  -685.41028      106.80819     -792.21847      282.14122      585.40311      1920.3708      0.9969611
   2941000  -624.02008      126.53227     -750.55235      334.24375     -1360.9541      1920.3708      0.9969611
   2942000  -624.9575       116.30454     -741.26204      307.22647     -379.77317      1920.3708      0.9969611
   2943000  -606.34993      115.98335     -722.33329      306.37804     -2088.0947      1920.3708      0.9969611
   2944000  -634.73889      118.81171     -753.5506       313.84934     -616.66267      1920.3708      0.9969611
   2945000  -630.18585      121.78375     -751.9696       321.70019      2636.4774      1920.3708      0.9969611
   2946000  -645.8829       109.18207     -755.06497      288.41198      160.16959      1920.3708      0.9969611
   2947000  -633.87685      119.18805     -753.0649       314.84347      732.08064      1920.3708      0.9969611
   2948000  -642.98697      100.13544     -743.12241      264.51468     -1884.5066      1920.3708      0.9969611
   2949000  -646.68933      102.64682     -749.33615      271.14867     -634.0187       1920.3708      0.9969611
   2950000  -613.3029       126.08623     -739.38914      333.0655      -516.95185      1920.3708      0.9969611
   2951000  -621.74116      121.11205     -742.85321      319.92585      1364.0785      1920.3708      0.9969611
   2952000  -595.36618      134.522       -729.88818      355.34916      1635.3923      1920.3708      0.9969611
   2953000  -620.28496      106.99223     -727.27719      282.62737     -1786.9382      1920.3708      0.9969611
   2954000  -662.51701      99.517953     -762.03497      262.88355      330.1869       1920.3708      0.9969611
   2955000  -647.56641      111.68494     -759.25135      295.02348     -1182.733       1920.3708      0.9969611
   2956000  -619.44396      120.93866     -740.38262      319.46782     -1311.7965      1920.3708      0.9969611
   2957000  -631.27872      101.68984     -732.96856      268.62074      90.638603      1920.3708      0.9969611
   2958000  -631.13003      102.85501     -733.98504      271.69861     -260.51685      1920.3708      0.9969611
   2959000  -637.26125      111.84822     -749.10947      295.4548      -3199.7476      1920.3708      0.9969611
   2960000  -628.73246      119.63568     -748.36814      316.02591     -584.34948      1920.3708      0.9969611
   2961000  -639.05062      95.408537     -734.45916      252.02824     -254.72647      1920.3708      0.9969611
   2962000  -639.32619      102.46203     -741.78821      270.66052     -177.09936      1920.3708      0.9969611
   2963000  -626.86699      123.35758     -750.22457      325.85757      1929.892       1920.3708      0.9969611
   2964000  -654.81541      112.04602     -766.86142      295.97729     -102.26664      1920.3708      0.9969611
   2965000  -643.7263       111.4479      -755.17419      294.39732      3007.2242      1920.3708      0.9969611
   2966000  -638.84625      121.05851     -759.90476      319.78442      1862.1277      1920.3708      0.9969611
   2967000  -618.83072      124.13351     -742.96423      327.90724      301.3417       1920.3708      0.9969611
   2968000  -617.47735      123.61616     -741.09351      326.54064      1581.8587      1920.3708      0.9969611
   2969000  -631.86953      108.41934     -740.28887      286.39718      668.20595      1920.3708      0.9969611
   2970000  -625.33428      118.75039     -744.08467      313.68737     -52.697057      1920.3708      0.9969611
   2971000  -612.9517       127.90285     -740.85455      337.86422      2198.559       1920.3708      0.9969611
   2972000  -636.34312      110.39409     -746.73721      291.61362      2223.4387      1920.3708      0.9969611
   2973000  -655.20414      100.56894     -755.77309      265.65981      190.74741      1920.3708      0.9969611
   2974000  -636.94218      118.37161     -755.31379      312.68679     -1852.501       1920.3708      0.9969611
   2975000  -614.90211      110.7482      -725.65031      292.54904      786.03589      1920.3708      0.9969611
   2976000  -617.87833      132.21746     -750.09579      349.26155      3824.5069      1920.3708      0.9969611
   2977000  -619.62486      115.45154     -735.0764       304.97322      1353.84        1920.3708      0.9969611
   2978000  -631.32926      113.76804     -745.0973       300.52614     -1915.1851      1920.3708      0.9969611
   2979000  -641.92863      112.92157     -754.8502       298.29012     -1253.606       1920.3708      0.9969611
   2980000  -626.92693      117.05912     -743.98606      309.21977     -445.21444      1920.3708      0.9969611
   2981000  -641.58531      120.07402     -761.65932      317.18381      1612.5991      1920.3708      0.9969611
   2982000  -650.30942      107.12828     -757.43771      282.98677     -449.23946      1920.3708      0.9969611
   2983000  -655.9994       117.478       -773.4774       310.32626     -73.931423      1920.3708      0.9969611
   2984000  -631.76785      115.66196     -747.42981      305.52906      423.28771      1920.3708      0.9969611
   2985000  -632.57072      110.11305     -742.68377      290.87122      213.95321      1920.3708      0.9969611
   2986000  -648.31035      125.49867     -773.80903      331.51342     -1002.5352      1920.3708      0.9969611
   2987000  -647.18019      127.11895     -774.29914      335.79349      474.79923      1920.3708      0.9969611
   2988000  -650.4199       110.34947     -760.76938      291.49576      2349.913       1920.3708      0.9969611
   2989000  -625.82475      110.97126     -736.79602      293.13826      775.46698      1920.3708      0.9969611
   2990000  -638.4019       105.61168     -744.01358      278.98056      1341.1252      1920.3708      0.9969611
   2991000  -633.75935      110.49247     -744.25182      291.8735       610.41388      1920.3708      0.9969611
   2992000  -635.12487      104.80196     -739.92684      276.84163     -1146.5542      1920.3708      0.9969611
   2993000  -635.71573      121.54156     -757.2573       321.06044      2583.1355      1920.3708      0.9969611
   2994000  -636.90144      115.11827     -752.01972      304.09288     -1106.629       1920.3708      0.9969611
   2995000  -651.86195      104.0777      -755.93965      274.92844     -1137.8512      1920.3708      0.9969611
   2996000  -641.80322      121.62128     -763.4245       321.27102     -1975.2989      1920.3708      0.9969611
   2997000  -648.78506      116.04602     -764.83108      306.54357     -311.34563      1920.3708      0.9969611
   2998000  -653.95823      111.404       -765.36223      294.28135      787.95666      1920.3708      0.9969611
   2999000  -634.8466       114.83433     -749.68094      303.34282     -1176.9788      1920.3708      0.9969611
   3000000  -647.587        105.64185     -753.22886      279.06026     -19.29586       1920.3708      0.9969611
Loop time of 1803.35 on 1 procs for 2000000 steps with 192 atoms

Performance: 95.821 ns/day, 0.250 hours/ns, 1109.044 timesteps/s
99.7% CPU use with 1 MPI tasks x 1 OpenMP threads

MPI task timing breakdown:
Section |  min time  |  avg time  |  max time  |%varavg| %total
---------------------------------------------------------------
Pair    | 1450.6     | 1450.6     | 1450.6     |   0.0 | 80.44
Bond    | 0.10842    | 0.10842    | 0.10842    |   0.0 |  0.01
Kspace  | 225.75     | 225.75     | 225.75     |   0.0 | 12.52
Neigh   | 73.186     | 73.186     | 73.186     |   0.0 |  4.06
Comm    | 26.992     | 26.992     | 26.992     |   0.0 |  1.50
Output  | 0.46155    | 0.46155    | 0.46155    |   0.0 |  0.03
Modify  | 21.711     | 21.711     | 21.711     |   0.0 |  1.20
Other   |            | 4.523      |            |       |  0.25

Nlocal:            192 ave         192 max         192 min
Histogram: 1 0 0 0 0 0 0 0 0 0
Nghost:           4659 ave        4659 max        4659 min
Histogram: 1 0 0 0 0 0 0 0 0 0
Neighs:          69232 ave       69232 max       69232 min
Histogram: 1 0 0 0 0 0 0 0 0 0

Total # of neighbors = 69232
Ave neighs/atom = 360.58333
Ave special neighs/atom = 2
Neighbor list builds = 57276
Dangerous builds = 0

# write data file
write_data data.after_prod.lmp
System init for write_data ...
PPPM initialization ...
  using 12-bit tables for long-range coulomb (src/kspace.cpp:342)
  G vector (1/distance) = 0.31260513
  grid = 12 12 12
  stencil order = 5
  estimated absolute RMS force accuracy = 0.0021455329
  estimated relative force accuracy = 6.4612085e-06
  using double precision FFTW3
  3d grid and FFT values/proc = 6859 1728
Generated 1 of 1 mixed pair_coeff terms from geometric mixing rule

# clean up
undump dPROD
unfix fTHERMO
unfix fMOM
unfix fSHAKE
Total wall time: 0:45:09
