LAMMPS (23 Jun 2022 - Update 4)
  using 1 OpenMP thread(s) per MPI task
# created by fftool

# System settings
units real
boundary p p p  # Periodic boundary conditions

# definition of atoms, bonds, angles
atom_style full
bond_style harmonic
angle_style harmonic

# definition of pair potentials
special_bonds lj/coul 0.0 0.0 0.5
pair_style lj/cut/coul/long 10.0 10.0
pair_modify mix geometric tail yes
kspace_style pppm 1.0e-5

# read data file
read_data data.lmp
Reading data file ...
  orthogonal box = (0 0 0) to (15.660478 15.660478 15.660478)
  1 by 1 by 2 MPI processor grid
  reading atoms ...
  384 atoms
  scanning bonds ...
  1 = max bonds/atom
  scanning angles ...
  1 = max angles/atom
  reading bonds ...
  256 bonds
  reading angles ...
  128 angles
Finding 1-2 1-3 1-4 neighbors ...
  special bond factors lj:    0        0        0.5
  special bond factors coul:  0        0        0.5
     2 = max # of 1-2 neighbors
     1 = max # of 1-3 neighbors
     1 = max # of 1-4 neighbors
     2 = max # of special neighbors
  special bonds CPU = 0.000 seconds
  read_data CPU = 0.006 seconds

# definition of LJ parameters
pair_coeff    1    1     0.000000     0.000000  # Hw Hw
pair_coeff    2    2     0.163049     3.182090  # Ow-Ow

############################################

# remove energy hotspots
minimize 1.0e-4 1.0e-6 100 1000
WARNING: Using 'neigh_modify every 1 delay 0 check yes' setting during minimization (src/min.cpp:187)
PPPM initialization ...
  using 12-bit tables for long-range coulomb (src/kspace.cpp:342)
  G vector (1/distance) = 0.31203871
  grid = 15 15 15
  stencil order = 5
  estimated absolute RMS force accuracy = 0.0022228175
  estimated relative force accuracy = 6.6939488e-06
  using double precision FFTW3
  3d grid and FFT values/proc = 6776 1800
Generated 1 of 1 mixed pair_coeff terms from geometric mixing rule
Neighbor list info ...
  update every 1 steps, delay 0 steps, check yes
  max neighbors/atom: 2000, page size: 100000
  master list distance cutoff = 12
  ghost atom cutoff = 12
  binsize = 6, bins = 3 3 3
  1 neighbor lists, perpetual/occasional/extra = 1 0 0
  (1) pair lj/cut/coul/long, perpetual
      attributes: half, newton on
      pair build: half/bin/newton
      stencil: half/bin/3d
      bin: standard
Per MPI rank memory allocation (min/avg/max) = 8.68 | 8.68 | 8.68 Mbytes
   Step          Temp          E_pair         E_mol          TotEng         Press
         0   0              61742.467      1.0236194e-06  61742.467      4438317.8
       100   0             -1927.3185      156.50379     -1770.8148     -7338.4326
Loop time of 0.24435 on 2 procs for 100 steps with 384 atoms

99.7% CPU use with 2 MPI tasks x 1 OpenMP threads

Minimization stats:
  Stopping criterion = max iterations
  Energy initial, next-to-last, final =
       61742.467333288  -1769.53371570159  -1770.81475176701
  Force two-norm initial, final = 467784.44 42.753722
  Force max component initial, final = 252164.97 10.312867
  Final line search alpha, max atom move = 0.0053780524 0.05546314
  Iterations, force evaluations = 100 176

MPI task timing breakdown:
Section |  min time  |  avg time  |  max time  |%varavg| %total
---------------------------------------------------------------
Pair    | 0.1813     | 0.1833     | 0.18529    |   0.5 | 75.01
Bond    | 0.00070033 | 0.00071865 | 0.00073696 |   0.0 |  0.29
Kspace  | 0.036199   | 0.038177   | 0.040154   |   1.0 | 15.62
Neigh   | 0.0074427  | 0.007446   | 0.0074493  |   0.0 |  3.05
Comm    | 0.013121   | 0.013129   | 0.013136   |   0.0 |  5.37
Output  | 1.2715e-05 | 1.5168e-05 | 1.762e-05  |   0.0 |  0.01
Modify  | 0          | 0          | 0          |   0.0 |  0.00
Other   |            | 0.001569   |            |       |  0.64

Nlocal:            192 ave         198 max         186 min
Histogram: 1 0 0 0 0 0 0 0 0 1
Nghost:           4795 ave        4815 max        4775 min
Histogram: 1 0 0 0 0 0 0 0 0 1
Neighs:          69246 ave       69422 max       69070 min
Histogram: 1 0 0 0 0 0 0 0 0 1

Total # of neighbors = 138492
Ave neighs/atom = 360.65625
Ave special neighs/atom = 2
Neighbor list builds = 5
Dangerous builds = 0
reset_timestep 0

# constrain water bonds and angles
fix fSHAKE all shake 0.0001 20 0 b 1 a 1
       0 = # of size 2 clusters
       0 = # of size 3 clusters
       0 = # of size 4 clusters
     128 = # of frozen angles
  find clusters CPU = 0.000 seconds

# remove Center of Mass movement every 100 steps
fix fMOM all momentum 100 linear 1 1 1

# define the neighbor list
neighbor 2.0 bin

# IMPORTANT: timestep and temperature and pressure
timestep 1.0
variable vTK equal 298.15
variable vPBAR equal 1.0

# randomize velocities
velocity all create ${vTK} 28810
velocity all create 298.15 28810

# thermostat (solving the ODE)
fix fTHERMO all nvt temp ${vTK} ${vTK} 100
fix fTHERMO all nvt temp 298.15 ${vTK} 100
fix fTHERMO all nvt temp 298.15 298.15 100

# print settings
thermo 1000
thermo_style custom step etotal ke pe temp press vol density
# trajectory output
dump dEQUI all custom 1000 equi.lammpstrj id element xu yu zu
dump_modify dEQUI element H O sort id

# equilibration
# 1 ns
run 1000000
PPPM initialization ...
  using 12-bit tables for long-range coulomb (src/kspace.cpp:342)
  G vector (1/distance) = 0.31203871
  grid = 15 15 15
  stencil order = 5
  estimated absolute RMS force accuracy = 0.0022228175
  estimated relative force accuracy = 6.6939488e-06
  using double precision FFTW3
  3d grid and FFT values/proc = 6776 1800
Generated 1 of 1 mixed pair_coeff terms from geometric mixing rule
Per MPI rank memory allocation (min/avg/max) = 9.718 | 9.718 | 9.718 Mbytes
   Step         TotEng         KinEng         PotEng          Temp          Press          Volume        Density
         0  -1700.6928      226.62577     -1927.3185      298.15        -735.68659      3840.7412      0.99696119
      1000  -1239.4571      232.51949     -1471.9766      305.90381      2509.8918      3840.7412      0.99696119
      2000  -1260.5258      230.62367     -1491.1494      303.40966     -243.47089      3840.7412      0.99696119
      3000  -1263.021       216.84523     -1479.8662      285.28267      2568.1624      3840.7412      0.99696119
      4000  -1268.405       222.81204     -1491.2171      293.13264     -161.05964      3840.7412      0.99696119
      5000  -1270.3442      228.61652     -1498.9608      300.76904     -1178.4536      3840.7412      0.99696119
      6000  -1281.9496      214.86555     -1496.8151      282.67819     -743.94249      3840.7412      0.99696119
      7000  -1279.852       232.7548      -1512.6068      306.21337     -143.79083      3840.7412      0.99696119
      8000  -1264.7379      226.79776     -1491.5357      298.37627     -345.02707      3840.7412      0.99696119
      9000  -1250.2256      227.72706     -1477.9527      299.59886      2252.9651      3840.7412      0.99696119
     10000  -1267.5553      224.48027     -1492.0356      295.32737     -2335.7566      3840.7412      0.99696119
     11000  -1259.4861      240.0817      -1499.5678      315.85268      458.74519      3840.7412      0.99696119
     12000  -1235.1943      246.70529     -1481.8996      324.56671      380.98216      3840.7412      0.99696119
     13000  -1247.729       225.01077     -1472.7398      296.02529      572.57463      3840.7412      0.99696119
     14000  -1272.1921      239.1027      -1511.2948      314.56471     -136.03848      3840.7412      0.99696119
     15000  -1279.6957      214.96535     -1494.661       282.8095      -806.24758      3840.7412      0.99696119
     16000  -1280.0171      218.0812      -1498.0983      286.90871     -1164.6463      3840.7412      0.99696119
     17000  -1275.5292      222.67781     -1498.2071      292.95604      605.34356      3840.7412      0.99696119
     18000  -1214.9377      240.16401     -1455.1017      315.96097      86.547017      3840.7412      0.99696119
     19000  -1242.1546      240.18658     -1482.3412      315.99067     -396.18368      3840.7412      0.99696119
     20000  -1255.4911      237.63935     -1493.1305      312.63952      1237.6359      3840.7412      0.99696119
     21000  -1267.2493      213.61809     -1480.8674      281.03703      1595.6342      3840.7412      0.99696119
     22000  -1272.6171      213.21779     -1485.8349      280.51039     -563.38214      3840.7412      0.99696119
     23000  -1269.3912      212.29355     -1481.6847      279.29446     -145.54455      3840.7412      0.99696119
     24000  -1228.6136      237.17787     -1465.7915      312.03239     -911.80421      3840.7412      0.99696119
     25000  -1243.2941      233.83739     -1477.1315      307.63765     -616.09505      3840.7412      0.99696119
     26000  -1289.0687      205.39131     -1494.46        270.21384     -2491.9963      3840.7412      0.99696119
     27000  -1274.0514      225.76538     -1499.8168      297.01806     -1183.2427      3840.7412      0.99696119
     28000  -1266.8436      227.72749     -1494.571       299.59943      2205.0596      3840.7412      0.99696119
     29000  -1217.3773      245.63398     -1463.0113      323.1573      -522.57867      3840.7412      0.99696119
     30000  -1282.107       218.3684      -1500.4754      287.28656      392.80627      3840.7412      0.99696119
     31000  -1239.9774      237.23478     -1477.2122      312.10726      402.47695      3840.7412      0.99696119
     32000  -1253.0168      219.9935      -1473.0103      289.42455      406.11678      3840.7412      0.99696119
     33000  -1285.4207      215.63193     -1501.0526      283.68645      687.1681       3840.7412      0.99696119
     34000  -1254.9118      227.4309      -1482.3427      299.20923      875.60631      3840.7412      0.99696119
     35000  -1275.7268      218.10032     -1493.8271      286.93387     -902.38238      3840.7412      0.99696119
     36000  -1239.4728      238.66811     -1478.1409      313.99296     -781.95629      3840.7412      0.99696119
     37000  -1244.6042      210.5517      -1455.1559      277.00287      2252.287       3840.7412      0.99696119
     38000  -1260.1488      202.74634     -1462.8952      266.7341       2591.4481      3840.7412      0.99696119
     39000  -1222.0558      242.52719     -1464.5829      319.06999     -680.57239      3840.7412      0.99696119
     40000  -1242.5712      231.17936     -1473.7505      304.14073      81.874741      3840.7412      0.99696119
     41000  -1264.9626      228.44285     -1493.4054      300.54055     -1003.8064      3840.7412      0.99696119
     42000  -1279.1514      231.11256     -1510.2639      304.05284      856.78389      3840.7412      0.99696119
     43000  -1242.9324      231.8633      -1474.7957      305.04052     -507.67786      3840.7412      0.99696119
     44000  -1271.5183      224.9203      -1496.4386      295.90627      1593.5244      3840.7412      0.99696119
     45000  -1234.8081      224.15516     -1458.9633      294.89965      400.67583      3840.7412      0.99696119
     46000  -1255.1505      210.67052     -1465.821       277.15919     -932.57842      3840.7412      0.99696119
     47000  -1270.8922      227.85334     -1498.7456      299.76499     -1301.896       3840.7412      0.99696119
     48000  -1236.7248      232.02621     -1468.7511      305.25484      417.10451      3840.7412      0.99696119
     49000  -1270.3911      222.18373     -1492.5748      292.30602      473.64722      3840.7412      0.99696119
     50000  -1225.1107      217.35646     -1442.4672      285.95525      2007.0491      3840.7412      0.99696119
     51000  -1248.0827      224.24434     -1472.327       295.01697     -2099.4966      3840.7412      0.99696119
     52000  -1233.089       241.46901     -1474.558       317.67783      1174.3647      3840.7412      0.99696119
     53000  -1278.7154      214.91808     -1493.6335      282.7473      -789.13308      3840.7412      0.99696119
     54000  -1234.4627      232.27308     -1466.7358      305.57963     -1116.0336      3840.7412      0.99696119
     55000  -1254.0555      227.43273     -1481.4883      299.21164      456.65574      3840.7412      0.99696119
     56000  -1237.7351      217.95374     -1455.6889      286.74103     -12.451521      3840.7412      0.99696119
     57000  -1242.8666      239.97551     -1482.8421      315.71298      269.45658      3840.7412      0.99696119
     58000  -1279.9622      234.46736     -1514.4296      308.46643      1254.7791      3840.7412      0.99696119
     59000  -1236.7385      236.84729     -1473.5857      311.59748      2562.6714      3840.7412      0.99696119
     60000  -1267.1524      227.89965     -1495.052       299.82593     -199.36349      3840.7412      0.99696119
     61000  -1229.8173      237.42411     -1467.2414      312.35635     -1108.9009      3840.7412      0.99696119
     62000  -1243.0531      225.39047     -1468.4435      296.52483     -319.63753      3840.7412      0.99696119
     63000  -1222.2571      220.24455     -1442.5017      289.75483      277.77707      3840.7412      0.99696119
     64000  -1239.278       223.62174     -1462.8997      294.19788     -234.51336      3840.7412      0.99696119
     65000  -1282.8231      217.36555     -1500.1886      285.9672       220.45858      3840.7412      0.99696119
     66000  -1261.1586      214.02261     -1475.1812      281.56922      247.40999      3840.7412      0.99696119
     67000  -1250.9685      230.33353     -1481.302       303.02795     -1083.7115      3840.7412      0.99696119
     68000  -1270.6949      231.55014     -1502.245       304.62852      1369.9032      3840.7412      0.99696119
     69000  -1221.2288      239.04728     -1460.276       314.4918       1743.9263      3840.7412      0.99696119
     70000  -1223.675       241.41511     -1465.0901      317.60693      459.80776      3840.7412      0.99696119
     71000  -1254.0344      227.48492     -1481.5194      299.28031      1047.3205      3840.7412      0.99696119
     72000  -1238.4815      231.24235     -1469.7239      304.2236       1191.2064      3840.7412      0.99696119
     73000  -1215.8597      218.66344     -1434.5232      287.67471      920.36816      3840.7412      0.99696119
     74000  -1245.9443      233.1269      -1479.0712      306.70292     -1327.0534      3840.7412      0.99696119
     75000  -1238.6736      243.49609     -1482.1697      320.34467     -1776.4686      3840.7412      0.99696119
     76000  -1247.5807      202.76392     -1450.3446      266.75723      1364.9506      3840.7412      0.99696119
     77000  -1252.6301      229.3748      -1482.0049      301.76664     -3.780937       3840.7412      0.99696119
     78000  -1268.9616      242.18913     -1511.1507      318.62523     -779.2586       3840.7412      0.99696119
     79000  -1300.9528      236.64523     -1537.5981      311.33165      150.23579      3840.7412      0.99696119
     80000  -1270.8041      229.01128     -1499.8154      301.28838      1084.0561      3840.7412      0.99696119
     81000  -1256.5576      222.11481     -1478.6724      292.21535      431.61286      3840.7412      0.99696119
     82000  -1276.581       201.2502      -1477.8312      264.76577     -1033.6573      3840.7412      0.99696119
     83000  -1256.9436      230.01439     -1486.958       302.60809      977.37348      3840.7412      0.99696119
     84000  -1217.6086      244.8302      -1462.4388      322.09984      569.23148      3840.7412      0.99696119
     85000  -1257.7957      239.00489     -1496.8006      314.43604      980.9832       3840.7412      0.99696119
     86000  -1307.3932      220.82202     -1528.2152      290.51455     -506.08237      3840.7412      0.99696119
     87000  -1230.9468      228.59203     -1459.5389      300.73682      319.00953      3840.7412      0.99696119
     88000  -1277.0301      213.68214     -1490.7122      281.12129     -1011.3884      3840.7412      0.99696119
     89000  -1237.4173      246.22804     -1483.6453      323.93885      534.95442      3840.7412      0.99696119
     90000  -1289.9491      225.48163     -1515.4307      296.64476      521.81412      3840.7412      0.99696119
     91000  -1233.8089      245.54299     -1479.3519      323.03758      1583.206       3840.7412      0.99696119
     92000  -1273.5942      203.44506     -1477.0393      267.65334     -1114.915       3840.7412      0.99696119
     93000  -1255.7476      216.94527     -1472.6929      285.41428      2411.4594      3840.7412      0.99696119
     94000  -1287.695       225.08172     -1512.7767      296.11864      857.33101      3840.7412      0.99696119
     95000  -1266.6997      215.94879     -1482.6485      284.10331      1013.1148      3840.7412      0.99696119
     96000  -1242.2436      235.11691     -1477.3605      309.32099      217.72133      3840.7412      0.99696119
     97000  -1262.9593      215.67494     -1478.6342      283.74303      300.17219      3840.7412      0.99696119
     98000  -1261.6056      231.74035     -1493.3459      304.87876      2002.0949      3840.7412      0.99696119
     99000  -1262.8913      217.29159     -1480.1829      285.8699      -895.5867       3840.7412      0.99696119
    100000  -1234.6657      223.0349      -1457.7006      293.42583      936.37865      3840.7412      0.99696119
    101000  -1296.8862      210.71385     -1507.6001      277.2162      -20.182892      3840.7412      0.99696119
    102000  -1272.5191      218.8355      -1491.3546      287.90108     -10.048528      3840.7412      0.99696119
    103000  -1293.3834      219.37215     -1512.7555      288.6071       1924.3973      3840.7412      0.99696119
    104000  -1259.9587      219.85842     -1479.8171      289.24683      1292.9639      3840.7412      0.99696119
    105000  -1277.6582      217.8736      -1495.5318      286.6356      -1795.0371      3840.7412      0.99696119
    106000  -1291.018       212.79695     -1503.8149      279.95673     -2056.0073      3840.7412      0.99696119
    107000  -1270.8789      217.28481     -1488.1637      285.86098     -77.989793      3840.7412      0.99696119
    108000  -1285.1491      214.01784     -1499.1669      281.56294      656.16729      3840.7412      0.99696119
    109000  -1275.2834      217.04455     -1492.328       285.5449       427.8741       3840.7412      0.99696119
    110000  -1293.8208      223.76093     -1517.5818      294.381        1281.3176      3840.7412      0.99696119
    111000  -1225.133       226.61943     -1451.7525      298.14166     -446.79585      3840.7412      0.99696119
    112000  -1268.7262      232.68066     -1501.4068      306.11584      49.282114      3840.7412      0.99696119
    113000  -1262.5789      231.538       -1494.1169      304.61256      509.64889      3840.7412      0.99696119
    114000  -1238.918       227.22002     -1466.138       298.9318       518.45636      3840.7412      0.99696119
    115000  -1235.6942      216.73108     -1452.4253      285.1325       631.26002      3840.7412      0.99696119
    116000  -1266.824       231.20524     -1498.0292      304.17478     -189.53967      3840.7412      0.99696119
    117000  -1252.9427      234.76159     -1487.7042      308.85352     -561.43139      3840.7412      0.99696119
    118000  -1291.6127      210.65129     -1502.264       277.13389      305.73879      3840.7412      0.99696119
    119000  -1252.2183      227.99938     -1480.2177      299.95713      3187.8627      3840.7412      0.99696119
    120000  -1271.6663      220.09696     -1491.7633      289.56066     -1643.4581      3840.7412      0.99696119
    121000  -1256.626       223.1104      -1479.7364      293.52516     -1226.7957      3840.7412      0.99696119
    122000  -1261.5095      227.2938      -1488.8033      299.02886      280.8712       3840.7412      0.99696119
    123000  -1280.636       210.52832     -1491.1643      276.97211     -1368.6672      3840.7412      0.99696119
    124000  -1244.0564      229.81627     -1473.8727      302.34744      813.0242       3840.7412      0.99696119
    125000  -1252.257       215.21603     -1467.4731      283.13929      1887.9968      3840.7412      0.99696119
    126000  -1231.7633      232.77182     -1464.5351      306.23577     -426.09509      3840.7412      0.99696119
    127000  -1244.3859      241.44362     -1485.8295      317.64444     -164.39013      3840.7412      0.99696119
    128000  -1243.257       230.24906     -1473.5061      302.91682     -1278.9932      3840.7412      0.99696119
    129000  -1250.8241      223.46743     -1474.2915      293.99487     -1038.858       3840.7412      0.99696119
    130000  -1264.7436      231.6601      -1496.4037      304.77318      2.7687711      3840.7412      0.99696119
    131000  -1268.9068      219.30886     -1488.2157      288.52383     -114.85539      3840.7412      0.99696119
    132000  -1251.6509      231.49236     -1483.1432      304.5525       2927.9714      3840.7412      0.99696119
    133000  -1253.9314      222.78325     -1476.7146      293.09476     -1603.5867      3840.7412      0.99696119
    134000  -1257.0245      224.5915      -1481.616       295.4737       796.93728      3840.7412      0.99696119
    135000  -1241.4291      201.19347     -1442.6226      264.69114     -765.88117      3840.7412      0.99696119
    136000  -1278.0594      230.27731     -1508.3367      302.95398     -1533.7032      3840.7412      0.99696119
    137000  -1259.1215      226.07211     -1485.1936      297.4216       733.45699      3840.7412      0.99696119
    138000  -1273.1493      235.6062      -1508.7555      309.9647      -38.13007       3840.7412      0.99696119
    139000  -1240.5414      225.04565     -1465.5871      296.07119      1437.2328      3840.7412      0.99696119
    140000  -1251.4735      230.07044     -1481.5439      302.68183     -682.09703      3840.7412      0.99696119
    141000  -1267.1382      205.59546     -1472.7337      270.48242      1463.0677      3840.7412      0.99696119
    142000  -1256.8241      225.66671     -1482.4908      296.88826      860.4855       3840.7412      0.99696119
    143000  -1255.6697      238.91034     -1494.5801      314.31164     -707.38457      3840.7412      0.99696119
    144000  -1268.5822      212.60324     -1481.1855      279.70189      1969.4751      3840.7412      0.99696119
    145000  -1250.2827      213.35655     -1463.6392      280.69294     -1193.9063      3840.7412      0.99696119
    146000  -1253.8045      212.49168     -1466.2962      279.55511     -704.30242      3840.7412      0.99696119
    147000  -1235.9067      232.08472     -1467.9914      305.33182      270.82381      3840.7412      0.99696119
    148000  -1241.96        218.42576     -1460.3858      287.36203      2809.0266      3840.7412      0.99696119
    149000  -1236.0938      245.3427      -1481.4365      322.77409      297.34139      3840.7412      0.99696119
    150000  -1243.744       235.1259      -1478.8699      309.33281     -839.14451      3840.7412      0.99696119
    151000  -1250.8702      224.39206     -1475.2623      295.21131      2039.5703      3840.7412      0.99696119
    152000  -1291.1358      201.84457     -1492.9804      265.54772     -466.73503      3840.7412      0.99696119
    153000  -1280.6735      201.83786     -1482.5114      265.5389      -3663.3809      3840.7412      0.99696119
    154000  -1243.6975      237.27223     -1480.9698      312.15653      750.55504      3840.7412      0.99696119
    155000  -1218.0939      249.37592     -1467.4698      328.08021     -801.84025      3840.7412      0.99696119
    156000  -1240.8121      235.60842     -1476.4205      309.96762      124.99424      3840.7412      0.99696119
    157000  -1273.9816      210.41232     -1484.3939      276.81951      93.389326      3840.7412      0.99696119
    158000  -1275.8429      212.67865     -1488.5215      279.80109     -906.28969      3840.7412      0.99696119
    159000  -1228.1797      218.45866     -1446.6384      287.4053       623.05849      3840.7412      0.99696119
    160000  -1232.9311      219.70375     -1452.6348      289.04335     -190.26262      3840.7412      0.99696119
    161000  -1271.1541      212.06902     -1483.2231      278.99907      1376.4615      3840.7412      0.99696119
    162000  -1232.6968      233.40568     -1466.1025      307.06968      1631.0475      3840.7412      0.99696119
    163000  -1240.8425      226.62527     -1467.4678      298.14934      1925.7232      3840.7412      0.99696119
    164000  -1219.7049      236.2696      -1455.9745      310.83747      486.66687      3840.7412      0.99696119
    165000  -1251.942       227.85447     -1479.7964      299.76648     -510.29649      3840.7412      0.99696119
    166000  -1267.8708      228.1646      -1496.0354      300.1745      -1646.4122      3840.7412      0.99696119
    167000  -1232.7304      238.07488     -1470.8053      313.2125      -284.25716      3840.7412      0.99696119
    168000  -1304.0389      218.66013     -1522.6991      287.67037     -858.12384      3840.7412      0.99696119
    169000  -1283.9531      232.74341     -1516.6965      306.1984      -56.321562      3840.7412      0.99696119
    170000  -1252.8996      243.55006     -1496.4497      320.41568     -15.281076      3840.7412      0.99696119
    171000  -1230.7201      234.43613     -1465.1562      308.42534      1042.9845      3840.7412      0.99696119
    172000  -1259.947       231.21861     -1491.1656      304.19236     -825.08041      3840.7412      0.99696119
    173000  -1300.8068      202.5518      -1503.3586      266.47816      1756.2566      3840.7412      0.99696119
    174000  -1251.3208      246.34674     -1497.6675      324.09501     -358.42464      3840.7412      0.99696119
    175000  -1279.3578      214.71874     -1494.0766      282.48505     -80.630489      3840.7412      0.99696119
    176000  -1236.168       236.94925     -1473.1173      311.73163      126.11496      3840.7412      0.99696119
    177000  -1306.72        225.74856     -1532.4686      296.99593     -1169.0868      3840.7412      0.99696119
    178000  -1248.6968      225.66957     -1474.3663      296.89202     -162.49587      3840.7412      0.99696119
    179000  -1278.2182      209.27647     -1487.4947      275.32517     -441.27423      3840.7412      0.99696119
    180000  -1233.2496      237.93977     -1471.1893      313.03476     -1163.239       3840.7412      0.99696119
    181000  -1247.2858      239.11401     -1486.3998      314.5796       1902.0329      3840.7412      0.99696119
    182000  -1301.6214      212.48166     -1514.1031      279.54194     -897.27159      3840.7412      0.99696119
    183000  -1256.3879      223.02195     -1479.4098      293.4088       2385.7143      3840.7412      0.99696119
    184000  -1283.898       224.86873     -1508.7667      295.83842     -334.52181      3840.7412      0.99696119
    185000  -1267.9549      214.29949     -1482.2544      281.93348      858.62569      3840.7412      0.99696119
    186000  -1282.256       215.97754     -1498.2335      284.14113     -74.514854      3840.7412      0.99696119
    187000  -1235.2209      243.65169     -1478.8726      320.54938      5.512341       3840.7412      0.99696119
    188000  -1260.2303      225.12954     -1485.3599      296.18155     -1539.0752      3840.7412      0.99696119
    189000  -1276.1769      209.41735     -1485.5943      275.51052      1517.1643      3840.7412      0.99696119
    190000  -1238.3894      223.62204     -1462.0114      294.19827      1070.0119      3840.7412      0.99696119
    191000  -1258.5096      207.15332     -1465.6629      272.53194     -294.10042      3840.7412      0.99696119
    192000  -1255.6762      234.15735     -1489.8335      308.05858      193.51179      3840.7412      0.99696119
    193000  -1311.3503      203.60621     -1514.9565      267.86535     -1330.1912      3840.7412      0.99696119
    194000  -1281.3302      226.14362     -1507.4738      297.51568      306.24987      3840.7412      0.99696119
    195000  -1271.5056      236.70549     -1508.2111      311.41093     -315.56112      3840.7412      0.99696119
    196000  -1241.0512      234.04046     -1475.0916      307.9048      -1187.7815      3840.7412      0.99696119
    197000  -1270.2118      230.92716     -1501.139       303.80893      1877.499       3840.7412      0.99696119
    198000  -1282.4879      228.13571     -1510.6236      300.13648     -1001.7255      3840.7412      0.99696119
    199000  -1261.4805      232.88469     -1494.3651      306.38427     -396.22146      3840.7412      0.99696119
    200000  -1261.4414      208.12997     -1469.5714      273.81684      1372.319       3840.7412      0.99696119
    201000  -1262.2642      232.17138     -1494.4356      305.44583     -186.93761      3840.7412      0.99696119
    202000  -1234.8568      221.95798     -1456.8148      292.00903      811.03494      3840.7412      0.99696119
    203000  -1298.0978      203.26481     -1501.3626      267.4162       1111.7747      3840.7412      0.99696119
    204000  -1231.8546      252.68232     -1484.5369      332.43012     -654.02137      3840.7412      0.99696119
    205000  -1265.4369      230.19066     -1495.6275      302.83998     -137.88535      3840.7412      0.99696119
    206000  -1282.4219      214.05189     -1496.4738      281.60774      2095.5733      3840.7412      0.99696119
    207000  -1242.7495      232.046       -1474.7955      305.28088      27.83495       3840.7412      0.99696119
    208000  -1230.2428      241.41937     -1471.6622      317.61253      1127.1214      3840.7412      0.99696119
    209000  -1258.3503      228.18214     -1486.5324      300.19756     -435.1061       3840.7412      0.99696119
    210000  -1245.4517      231.08107     -1476.5328      304.01141     -1081.687       3840.7412      0.99696119
    211000  -1285.6026      215.67988     -1501.2825      283.74953      1054.8649      3840.7412      0.99696119
    212000  -1245.8358      241.22002     -1487.0558      317.35026      1983.2348      3840.7412      0.99696119
    213000  -1280.2215      226.97435     -1507.1959      298.60859      1390.2392      3840.7412      0.99696119
    214000  -1248.1462      234.48949     -1482.6357      308.49555      1289.8212      3840.7412      0.99696119
    215000  -1259.3815      221.09983     -1480.4813      290.88004     -525.92538      3840.7412      0.99696119
    216000  -1290.4291      205.95005     -1496.3791      270.94892     -465.37293      3840.7412      0.99696119
    217000  -1248.9539      238.42565     -1487.3795      313.67398      1594.16        3840.7412      0.99696119
    218000  -1258.1022      228.82476     -1486.927       301.043        44.613898      3840.7412      0.99696119
    219000  -1250.671       231.11427     -1481.7853      304.05509     -1318.6299      3840.7412      0.99696119
    220000  -1241.8851      229.52437     -1471.4094      301.96341      1218.3072      3840.7412      0.99696119
    221000  -1287.7151      223.36792     -1511.083       293.86396      262.63372      3840.7412      0.99696119
    222000  -1271.0463      225.2399      -1496.2862      296.32674     -489.98865      3840.7412      0.99696119
    223000  -1280.527       211.04491     -1491.572       277.65174     -508.00056      3840.7412      0.99696119
    224000  -1289.7364      203.26966     -1493.0061      267.42259      601.78836      3840.7412      0.99696119
    225000  -1248.3089      243.29749     -1491.6064      320.0834      -314.85409      3840.7412      0.99696119
    226000  -1232.9733      234.72259     -1467.6959      308.80222     -120.71123      3840.7412      0.99696119
    227000  -1265.5514      211.05886     -1476.6103      277.67009     -126.36657      3840.7412      0.99696119
    228000  -1249.9043      250.41316     -1500.3174      329.44481      503.44326      3840.7412      0.99696119
    229000  -1279.4576      228.92963     -1508.3873      301.18097     -2063.5489      3840.7412      0.99696119
    230000  -1261.0551      214.42746     -1475.4826      282.10184      734.23812      3840.7412      0.99696119
    231000  -1258.1215      224.88697     -1483.0085      295.86242      781.12758      3840.7412      0.99696119
    232000  -1204.8236      248.576       -1453.3996      327.02784      470.61802      3840.7412      0.99696119
    233000  -1243.6499      225.32798     -1468.9779      296.44261     -224.71748      3840.7412      0.99696119
    234000  -1261.9762      228.99296     -1490.9691      301.26428      529.96373      3840.7412      0.99696119
    235000  -1248.0393      214.99169     -1463.031       282.84414      1634.837       3840.7412      0.99696119
    236000  -1260.7326      221.71409     -1482.4467      291.68816      1038.089       3840.7412      0.99696119
    237000  -1283.8219      223.7532      -1507.5751      294.37084     -242.74708      3840.7412      0.99696119
    238000  -1257.4932      219.93588     -1477.4291      289.34874     -1006.3484      3840.7412      0.99696119
    239000  -1254.2656      248.34435     -1502.6099      326.72307      1547.965       3840.7412      0.99696119
    240000  -1229.6717      230.5316      -1460.2033      303.28852      744.88761      3840.7412      0.99696119
    241000  -1278.3447      219.04935     -1497.394       288.18243      37.929316      3840.7412      0.99696119
    242000  -1253.7176      227.80242     -1481.52        299.698        17.561137      3840.7412      0.99696119
    243000  -1257.7926      229.6395      -1487.4321      302.11488     -821.26211      3840.7412      0.99696119
    244000  -1262.8162      233.9484      -1496.7646      307.78368      595.92722      3840.7412      0.99696119
    245000  -1260.8023      234.20717     -1495.0095      308.12412      777.31869      3840.7412      0.99696119
    246000  -1282.6774      211.72179     -1494.3992      278.54225      2104.9161      3840.7412      0.99696119
    247000  -1268.258       219.89812     -1488.1561      289.29907      718.87893      3840.7412      0.99696119
    248000  -1247.029       253.38624     -1500.4153      333.35621      431.29793      3840.7412      0.99696119
    249000  -1266.275       222.55127     -1488.8263      292.78957     -803.10289      3840.7412      0.99696119
    250000  -1235.3839      251.59443     -1486.9783      330.9989       1708.048       3840.7412      0.99696119
    251000  -1263.2972      221.98548     -1485.2827      292.04521      169.12225      3840.7412      0.99696119
    252000  -1261.516       208.77906     -1470.2951      274.67078     -1394.521       3840.7412      0.99696119
    253000  -1257.9351      221.19514     -1479.1302      291.00544      2178.1243      3840.7412      0.99696119
    254000  -1257.5633      210.54237     -1468.1057      276.9906       2078.9576      3840.7412      0.99696119
    255000  -1208.6017      245.8877      -1454.4894      323.49109      195.70779      3840.7412      0.99696119
    256000  -1247.5621      237.10938     -1484.6715      311.94229      1738.851       3840.7412      0.99696119
    257000  -1275.5852      225.7875      -1501.3727      297.04716      618.34903      3840.7412      0.99696119
    258000  -1322.1949      202.04399     -1524.2389      265.81008      2305.2881      3840.7412      0.99696119
    259000  -1255.4417      247.90962     -1503.3514      326.15114     -427.16076      3840.7412      0.99696119
    260000  -1272.1211      218.61484     -1490.7359      287.61078     -996.73908      3840.7412      0.99696119
    261000  -1238.0475      225.45255     -1463.5         296.6065      -68.772681      3840.7412      0.99696119
    262000  -1271.2723      217.95066     -1489.223       286.73698     -692.75982      3840.7412      0.99696119
    263000  -1241.3823      219.74872     -1461.131       289.10251     -776.09405      3840.7412      0.99696119
    264000  -1304.7293      215.55414     -1520.2834      283.5841       1191.8965      3840.7412      0.99696119
    265000  -1235.6897      220.10761     -1455.7973      289.57467     -550.22385      3840.7412      0.99696119
    266000  -1258.092       231.10172     -1489.1937      304.03857      1402.2625      3840.7412      0.99696119
    267000  -1261.5565      224.85951     -1486.416       295.8263      -1292.0192      3840.7412      0.99696119
    268000  -1292.6491      208.97367     -1501.6227      274.92681      235.25247      3840.7412      0.99696119
    269000  -1248.5933      227.35722     -1475.9505      299.1123       1445.706       3840.7412      0.99696119
    270000  -1289.0421      246.93893     -1535.981       324.8741      -724.35734      3840.7412      0.99696119
    271000  -1247.6711      224.73977     -1472.4109      295.66877     -1244.5948      3840.7412      0.99696119
    272000  -1262.48        231.5899      -1494.0699      304.68083     -787.70714      3840.7412      0.99696119
    273000  -1262.1387      216.65799     -1478.7967      285.03633      694.5626       3840.7412      0.99696119
    274000  -1276.1114      228.64039     -1504.7518      300.80044      348.81075      3840.7412      0.99696119
    275000  -1248.8237      235.2769      -1484.1006      309.53146     -576.21912      3840.7412      0.99696119
    276000  -1277.6006      225.55283     -1503.1534      296.73843      1305.7774      3840.7412      0.99696119
    277000  -1289.1634      214.83451     -1503.9979      282.63736     -155.41007      3840.7412      0.99696119
    278000  -1222.8113      246.21019     -1469.0215      323.91536      1342.5468      3840.7412      0.99696119
    279000  -1262.6025      230.76848     -1493.3709      303.60017      271.342        3840.7412      0.99696119
    280000  -1258.0313      229.89049     -1487.9218      302.44508     -1258.839       3840.7412      0.99696119
    281000  -1261.4175      223.73391     -1485.1514      294.34546     -435.3588       3840.7412      0.99696119
    282000  -1221.1429      248.40204     -1469.545       326.79897      1514.0956      3840.7412      0.99696119
    283000  -1273.0232      245.89129     -1518.9145      323.49582      1071.6414      3840.7412      0.99696119
    284000  -1291.4011      212.06403     -1503.4651      278.99251     -1027.722       3840.7412      0.99696119
    285000  -1278.4782      223.24526     -1501.7235      293.70259      516.92487      3840.7412      0.99696119
    286000  -1250.2437      236.87356     -1487.1173      311.63205      1280.0535      3840.7412      0.99696119
    287000  -1226.6049      243.13356     -1469.7385      319.86772     -143.82698      3840.7412      0.99696119
    288000  -1234.995       229.63814     -1464.6332      302.11308      659.40272      3840.7412      0.99696119
    289000  -1248.7482      240.4869      -1489.2351      316.38577      722.8273       3840.7412      0.99696119
    290000  -1270.9571      217.43999     -1488.3971      286.06515     -121.06142      3840.7412      0.99696119
    291000  -1260.7641      231.59253     -1492.3566      304.6843      -750.22218      3840.7412      0.99696119
    292000  -1227.8374      251.13939     -1478.9768      330.40024      1808.6685      3840.7412      0.99696119
    293000  -1295.0468      216.5748      -1511.6216      284.92689      138.2042       3840.7412      0.99696119
    294000  -1277.0952      204.23183     -1481.327       268.68842      1487.659       3840.7412      0.99696119
    295000  -1265.6579      238.12678     -1503.7847      313.28079      910.65201      3840.7412      0.99696119
    296000  -1261.4709      241.19169     -1502.6626      317.313        6.9521864      3840.7412      0.99696119
    297000  -1265.8113      207.02787     -1472.8392      272.36691     -841.72385      3840.7412      0.99696119
    298000  -1228.0536      230.13585     -1458.1895      302.76788      1228.7312      3840.7412      0.99696119
    299000  -1285.3236      209.33518     -1494.6588      275.40241     -434.65974      3840.7412      0.99696119
    300000  -1258.1133      222.19178     -1480.3051      292.31662      1950.0747      3840.7412      0.99696119
    301000  -1275.0968      220.73666     -1495.8335      290.40226      538.7841       3840.7412      0.99696119
    302000  -1259.9333      228.5896      -1488.5229      300.73362      627.68762      3840.7412      0.99696119
    303000  -1255.349       231.17576     -1486.5247      304.13599      1256.2338      3840.7412      0.99696119
    304000  -1247.794       221.67961     -1469.4736      291.6428       52.929603      3840.7412      0.99696119
    305000  -1239.336       229.57606     -1468.9121      302.03141      937.69935      3840.7412      0.99696119
    306000  -1248.6153      215.39213     -1464.0074      283.37096      831.13451      3840.7412      0.99696119
    307000  -1240.7909      223.3089      -1464.0998      293.78631      802.81262      3840.7412      0.99696119
    308000  -1291.142       231.05567     -1522.1977      303.978       -159.94357      3840.7412      0.99696119
    309000  -1297.6683      231.02036     -1528.6887      303.93155     -580.29509      3840.7412      0.99696119
    310000  -1242.9395      232.52373     -1475.4632      305.90938      369.03938      3840.7412      0.99696119
    311000  -1287.6218      214.40247     -1502.0242      282.06896      608.30617      3840.7412      0.99696119
    312000  -1269.1534      224.07435     -1493.2277      294.79334     -1670.0438      3840.7412      0.99696119
    313000  -1222.4459      232.58367     -1455.0296      305.98824     -546.51257      3840.7412      0.99696119
    314000  -1244.8501      231.19591     -1476.046       304.1625       3188.1384      3840.7412      0.99696119
    315000  -1235.8256      224.21538     -1460.041       294.97887     -723.87042      3840.7412      0.99696119
    316000  -1245.7205      227.02612     -1472.7466      298.6767       1713.1804      3840.7412      0.99696119
    317000  -1256.8313      245.7519      -1502.5832      323.31243     -919.85015      3840.7412      0.99696119
    318000  -1255.6042      242.55466     -1498.1589      319.10612      363.01658      3840.7412      0.99696119
    319000  -1290.6544      217.7344      -1508.3888      286.45247     -1256.7089      3840.7412      0.99696119
    320000  -1238.0598      223.69427     -1461.754       294.29331      169.36432      3840.7412      0.99696119
    321000  -1247.7714      240.57884     -1488.3502      316.50672     -797.3398       3840.7412      0.99696119
    322000  -1284.2702      212.39117     -1496.6614      279.42289     -622.88809      3840.7412      0.99696119
    323000  -1263.6047      220.28346     -1483.8882      289.80602      61.373626      3840.7412      0.99696119
    324000  -1210.8902      249.96776     -1460.858       328.85884      126.86098      3840.7412      0.99696119
    325000  -1228.8273      233.30979     -1462.1371      306.94352     -1156.2666      3840.7412      0.99696119
    326000  -1255.2224      236.56097     -1491.7834      311.2208       1562.3563      3840.7412      0.99696119
    327000  -1256.2305      220.2052      -1476.4357      289.70306      1252.1724      3840.7412      0.99696119
    328000  -1261.4423      219.11977     -1480.5621      288.27507      1684.4191      3840.7412      0.99696119
    329000  -1234.8978      234.49464     -1469.3925      308.50233      145.95441      3840.7412      0.99696119
    330000  -1269.6477      219.18996     -1488.8377      288.36741      1450.0364      3840.7412      0.99696119
    331000  -1269.8989      217.28272     -1487.1817      285.85823     -540.90675      3840.7412      0.99696119
    332000  -1248.304       217.51811     -1465.8221      286.16792      1957.7022      3840.7412      0.99696119
    333000  -1258.3338      210.0419      -1468.3757      276.33218      2442.3284      3840.7412      0.99696119
    334000  -1243.9951      226.79975     -1470.7948      298.37888     -286.88259      3840.7412      0.99696119
    335000  -1215.8334      252.08479     -1467.9182      331.64401     -23.557116      3840.7412      0.99696119
    336000  -1214.8933      239.93386     -1454.8271      315.65819     -1283.4411      3840.7412      0.99696119
    337000  -1249.6829      236.80643     -1486.4893      311.54372      1185.2977      3840.7412      0.99696119
    338000  -1250.3021      230.12551     -1480.4276      302.75428      2513.5276      3840.7412      0.99696119
    339000  -1278.4704      225.76772     -1504.2381      297.02114     -286.82346      3840.7412      0.99696119
    340000  -1256.2516      217.66138     -1473.913       286.3564       1268.4255      3840.7412      0.99696119
    341000  -1252.1585      226.28254     -1478.441       297.69844      280.09275      3840.7412      0.99696119
    342000  -1239.9689      227.68825     -1467.6572      299.5478      -962.33263      3840.7412      0.99696119
    343000  -1295.9928      200.56678     -1496.5595      263.86665     -1475.7145      3840.7412      0.99696119
    344000  -1266.5553      223.53969     -1490.095       294.08993     -177.62058      3840.7412      0.99696119
    345000  -1272.3236      234.14294     -1506.4666      308.03962      595.24905      3840.7412      0.99696119
    346000  -1286.9218      225.59282     -1512.5147      296.79104      550.6384       3840.7412      0.99696119
    347000  -1245.6882      224.83294     -1470.5211      295.79134      395.93863      3840.7412      0.99696119
    348000  -1270.9045      216.66958     -1487.5741      285.05159     -54.720683      3840.7412      0.99696119
    349000  -1244.6442      232.15784     -1476.8021      305.42802      437.12214      3840.7412      0.99696119
    350000  -1248.4662      237.33136     -1485.7975      312.23433     -990.452        3840.7412      0.99696119
    351000  -1246.153       225.97945     -1472.1325      297.29969     -463.94574      3840.7412      0.99696119
    352000  -1225.6439      252.14106     -1477.7849      331.71804      2321.4031      3840.7412      0.99696119
    353000  -1254.0793      227.7837      -1481.863       299.67338      1544.7026      3840.7412      0.99696119
    354000  -1282.339       245.9007      -1528.2397      323.50819      683.33852      3840.7412      0.99696119
    355000  -1283.5561      224.54951     -1508.1056      295.41846      228.15989      3840.7412      0.99696119
    356000  -1251.1852      222.83712     -1474.0223      293.16563     -893.78007      3840.7412      0.99696119
    357000  -1255.1639      239.38088     -1494.5448      314.93068     -1208.2264      3840.7412      0.99696119
    358000  -1258.6524      213.14799     -1471.8004      280.41857     -675.67302      3840.7412      0.99696119
    359000  -1250.3181      221.75411     -1472.0722      291.74082      1034.0902      3840.7412      0.99696119
    360000  -1260.3625      210.99796     -1471.3605      277.58997      156.18732      3840.7412      0.99696119
    361000  -1249.7275      244.22451     -1493.952       321.30299     -155.68515      3840.7412      0.99696119
    362000  -1290.6845      217.87093     -1508.5555      286.63208     -831.54201      3840.7412      0.99696119
    363000  -1280.306       205.27958     -1485.5856      270.06684     -2020.3538      3840.7412      0.99696119
    364000  -1282.0668      224.4395      -1506.5063      295.27373     -167.40593      3840.7412      0.99696119
    365000  -1255.6099      222.86384     -1478.4738      293.20078      2060.3648      3840.7412      0.99696119
    366000  -1224.6926      231.11737     -1455.81        304.05916      1599.1606      3840.7412      0.99696119
    367000  -1244.9987      231.73468     -1476.7333      304.8713      -803.26436      3840.7412      0.99696119
    368000  -1244.4512      220.27827     -1464.7294      289.7992       1280.168       3840.7412      0.99696119
    369000  -1275.2788      218.86093     -1494.1398      287.93454      196.77189      3840.7412      0.99696119
    370000  -1201.9382      253.29545     -1455.2337      333.23676     -349.76294      3840.7412      0.99696119
    371000  -1258.3245      220.56742     -1478.8919      290.1796       2062.896       3840.7412      0.99696119
    372000  -1284.8891      218.77029     -1503.6594      287.81529      831.49678      3840.7412      0.99696119
    373000  -1256.689       214.97813     -1471.6672      282.82631      41.617909      3840.7412      0.99696119
    374000  -1215.9076      237.54172     -1453.4494      312.51108     -1298.1204      3840.7412      0.99696119
    375000  -1252.3307      242.79532     -1495.126       319.42273      1077.7346      3840.7412      0.99696119
    376000  -1302.1997      213.69973     -1515.8994      281.14443      763.14012      3840.7412      0.99696119
    377000  -1252.8422      209.1686      -1462.0108      275.18326      2235.3834      3840.7412      0.99696119
    378000  -1267.1031      217.01173     -1484.1148      285.50172      412.93475      3840.7412      0.99696119
    379000  -1237.2398      228.1198      -1465.3596      300.11555     -377.22364      3840.7412      0.99696119
    380000  -1265.3294      217.37251     -1482.702       285.97637      732.41748      3840.7412      0.99696119
    381000  -1257.6652      225.51809     -1483.1833      296.69273     -788.88651      3840.7412      0.99696119
    382000  -1229.1976      208.49865     -1437.6962      274.30186      745.33663      3840.7412      0.99696119
    383000  -1257.627       220.94539     -1478.5723      290.67686     -583.60024      3840.7412      0.99696119
    384000  -1249.7585      220.81441     -1470.5729      290.50454     -194.22583      3840.7412      0.99696119
    385000  -1237.1521      236.5046      -1473.6567      311.14664      1672.8884      3840.7412      0.99696119
    386000  -1241.5897      244.8561      -1486.4458      322.13391      411.32804      3840.7412      0.99696119
    387000  -1251.7903      225.46221     -1477.2525      296.61921     -715.03623      3840.7412      0.99696119
    388000  -1230.481       230.19814     -1460.6792      302.84983     -2088.4058      3840.7412      0.99696119
    389000  -1258.9286      212.82269     -1471.7513      279.9906      -774.05009      3840.7412      0.99696119
    390000  -1250.9564      248.18384     -1499.1402      326.51191      3105.2591      3840.7412      0.99696119
    391000  -1271.728       220.6311      -1492.3591      290.26338      990.65416      3840.7412      0.99696119
    392000  -1272.1492      230.34338     -1502.4926      303.0409      -274.07704      3840.7412      0.99696119
    393000  -1242.7589      241.65247     -1484.4114      317.9192      -869.16287      3840.7412      0.99696119
    394000  -1251.8848      220.77198     -1472.6567      290.44872      775.67788      3840.7412      0.99696119
    395000  -1247.0003      235.0045      -1482.0048      309.17309      1801.0382      3840.7412      0.99696119
    396000  -1235.2971      223.22819     -1458.5253      293.68013     -1867.0521      3840.7412      0.99696119
    397000  -1295.0598      216.89532     -1511.9551      285.34857      840.47396      3840.7412      0.99696119
    398000  -1274.3916      242.05762     -1516.4492      318.45221     -889.33016      3840.7412      0.99696119
    399000  -1257.8006      230.3236      -1488.1242      303.01488      1999.0623      3840.7412      0.99696119
    400000  -1283.6052      225.82124     -1509.4265      297.09155     -1038.9438      3840.7412      0.99696119
    401000  -1241.2059      235.97645     -1477.1823      310.4518      -98.461421      3840.7412      0.99696119
    402000  -1235.7583      245.42413     -1481.1824      322.88121     -882.42527      3840.7412      0.99696119
    403000  -1246.9551      241.34181     -1488.297       317.51049     -811.96486      3840.7412      0.99696119
    404000  -1231.068       227.34161     -1458.4096      299.09177     -150.88359      3840.7412      0.99696119
    405000  -1243.4871      230.49001     -1473.9771      303.23381      1317.0458      3840.7412      0.99696119
    406000  -1229.2574      229.83343     -1459.0909      302.37002     -695.98345      3840.7412      0.99696119
    407000  -1236.9306      225.30954     -1462.2402      296.41835      533.3147       3840.7412      0.99696119
    408000  -1237.2655      214.73676     -1452.0023      282.50876      2106.7293      3840.7412      0.99696119
    409000  -1272.8798      218.4076      -1491.2874      287.33813      644.07753      3840.7412      0.99696119
    410000  -1224.8595      225.94316     -1450.8027      297.25196      78.663022      3840.7412      0.99696119
    411000  -1289.1202      213.29313     -1502.4133      280.60951      324.89038      3840.7412      0.99696119
    412000  -1242.5385      238.66655     -1481.205       313.99091     -1050.0479      3840.7412      0.99696119
    413000  -1264.643       214.05096     -1478.694       281.60652     -91.330453      3840.7412      0.99696119
    414000  -1269.1671      228.22288     -1497.39        300.25116      1276.5386      3840.7412      0.99696119
    415000  -1191.9141      247.96089     -1439.875       326.21858      280.57121      3840.7412      0.99696119
    416000  -1249.0208      221.63617     -1470.657       291.58566      746.70927      3840.7412      0.99696119
    417000  -1201.598       247.11264     -1448.7107      325.10263     -783.89468      3840.7412      0.99696119
    418000  -1202.4425      242.94603     -1445.3885      319.62101      1139.6141      3840.7412      0.99696119
    419000  -1262.7237      223.61737     -1486.3411      294.19214      68.211604      3840.7412      0.99696119
    420000  -1259.9295      232.56658     -1492.4961      305.96576      2025.7078      3840.7412      0.99696119
    421000  -1235.0167      245.42222     -1480.4389      322.8787      -808.58081      3840.7412      0.99696119
    422000  -1262.5963      218.40786     -1481.0042      287.33847      36.724169      3840.7412      0.99696119
    423000  -1267.5311      217.08897     -1484.6201      285.60333     -18.800174      3840.7412      0.99696119
    424000  -1226.2543      218.80223     -1445.0565      287.85731     -1361.899       3840.7412      0.99696119
    425000  -1258.6204      232.0231      -1490.6435      305.25076      1360.6487      3840.7412      0.99696119
    426000  -1270.0233      233.94127     -1503.9646      307.77431      1075.7193      3840.7412      0.99696119
    427000  -1219.0378      228.33518     -1447.373       300.39891      2688.5268      3840.7412      0.99696119
    428000  -1258.0412      227.27565     -1485.3169      299.00498     -1452.8889      3840.7412      0.99696119
    429000  -1198.2561      250.2629      -1448.519       329.24712      663.20598      3840.7412      0.99696119
    430000  -1247.8597      216.98686     -1464.8465      285.46899     -749.16409      3840.7412      0.99696119
    431000  -1235.3712      237.38356     -1472.7548      312.303        2475.1974      3840.7412      0.99696119
    432000  -1277.2765      214.44915     -1491.7256      282.13037      2022.0578      3840.7412      0.99696119
    433000  -1259.1727      221.15596     -1480.3286      290.95389      2077.9181      3840.7412      0.99696119
    434000  -1283.6481      224.84952     -1508.4976      295.81315     -44.415625      3840.7412      0.99696119
    435000  -1217.5624      234.4657      -1452.0281      308.46424     -365.46779      3840.7412      0.99696119
    436000  -1257.2818      220.34582     -1477.6276      289.88806      148.78001      3840.7412      0.99696119
    437000  -1237.8532      243.9363      -1481.7895      320.92382      1257.6086      3840.7412      0.99696119
    438000  -1258.4858      228.71074     -1487.1965      300.893        621.73953      3840.7412      0.99696119
    439000  -1235.957       199.30844     -1435.2654      262.21118     -1917.3705      3840.7412      0.99696119
    440000  -1238.2208      233.8074      -1472.0282      307.59818      924.65778      3840.7412      0.99696119
    441000  -1291.6924      217.92437     -1509.6167      286.70239      497.38826      3840.7412      0.99696119
    442000  -1226.2931      227.92689     -1454.22        299.86176      1494.8896      3840.7412      0.99696119
    443000  -1263.046       237.54925     -1500.5953      312.52099     -963.60634      3840.7412      0.99696119
    444000  -1255.8424      220.19199     -1476.0344      289.68569      626.38821      3840.7412      0.99696119
    445000  -1232.0069      220.06747     -1452.0743      289.52187     -657.25936      3840.7412      0.99696119
    446000  -1274.4981      241.47609     -1515.9742      317.68715      1083.3753      3840.7412      0.99696119
    447000  -1246.6053      227.00892     -1473.6143      298.65407     -581.30404      3840.7412      0.99696119
    448000  -1237.96        227.3518      -1465.3118      299.10516     -2437.856       3840.7412      0.99696119
    449000  -1247.502       219.76621     -1467.2683      289.12553      201.87037      3840.7412      0.99696119
    450000  -1256.9569      216.30077     -1473.2577      284.56637     -370.89035      3840.7412      0.99696119
    451000  -1232.2167      238.29898     -1470.5157      313.50734      993.75325      3840.7412      0.99696119
    452000  -1253.8471      235.95336     -1489.8005      310.42143      275.76624      3840.7412      0.99696119
    453000  -1270.9672      217.12295     -1488.0902      285.64804     -16.127504      3840.7412      0.99696119
    454000  -1260.9485      233.95233     -1494.9008      307.78886      1702.3373      3840.7412      0.99696119
    455000  -1280.9643      236.18968     -1517.1539      310.73233      263.19192      3840.7412      0.99696119
    456000  -1244.2056      249.93952     -1494.1452      328.82168     -374.46134      3840.7412      0.99696119
    457000  -1252.2186      216.29575     -1468.5143      284.55977     -1208.8584      3840.7412      0.99696119
    458000  -1254.9834      227.67213     -1482.6556      299.52659      343.06351      3840.7412      0.99696119
    459000  -1273.3946      214.37232     -1487.7669      282.0293       1207.9356      3840.7412      0.99696119
    460000  -1214.9196      266.52422     -1481.4438      350.6406       1330.4243      3840.7412      0.99696119
    461000  -1274.7259      229.91946     -1504.6453      302.48319     -649.90319      3840.7412      0.99696119
    462000  -1248.8318      217.4002      -1466.232       286.01279     -1565.1576      3840.7412      0.99696119
    463000  -1242.0633      229.17494     -1471.2382      301.50369      1079.6838      3840.7412      0.99696119
    464000  -1245.7695      230.1921      -1475.9616      302.84188     -69.25597       3840.7412      0.99696119
    465000  -1242.0454      242.09037     -1484.1358      318.4953       1560.8979      3840.7412      0.99696119
    466000  -1218.2165      218.98197     -1437.1985      288.09378     -980.75873      3840.7412      0.99696119
    467000  -1260.2593      218.91636     -1479.1757      288.00746      2231.3787      3840.7412      0.99696119
    468000  -1237.3625      214.55112     -1451.9136      282.26453     -1922.8267      3840.7412      0.99696119
    469000  -1262.6817      217.02414     -1479.7058      285.51805      421.48802      3840.7412      0.99696119
    470000  -1219.0524      237.04345     -1456.0958      311.85555      1042.3054      3840.7412      0.99696119
    471000  -1256.3668      212.64023     -1469.0071      279.75055      1306.8914      3840.7412      0.99696119
    472000  -1223.624       226.58068     -1450.2047      298.09068      1079.939       3840.7412      0.99696119
    473000  -1276.8357      211.51504     -1488.3507      278.27025     -444.32548      3840.7412      0.99696119
    474000  -1263.2537      233.4901      -1496.7438      307.18075     -963.90507      3840.7412      0.99696119
    475000  -1276.2365      217.44436     -1493.6808      286.07089      733.74275      3840.7412      0.99696119
    476000  -1224.2646      244.84505     -1469.1097      322.11938     -625.34615      3840.7412      0.99696119
    477000  -1242.319       233.58979     -1475.9088      307.3119       183.4803       3840.7412      0.99696119
    478000  -1253.9162      227.53502     -1481.4512      299.34621      154.26419      3840.7412      0.99696119
    479000  -1244.6024      233.99853     -1478.6009      307.84964      849.90631      3840.7412      0.99696119
    480000  -1233.7553      233.93185     -1467.6872      307.76191      978.43217      3840.7412      0.99696119
    481000  -1257.7039      234.43327     -1492.1371      308.42159      1301.0145      3840.7412      0.99696119
    482000  -1265.5396      226.49299     -1492.0326      297.97531      718.07204      3840.7412      0.99696119
    483000  -1285.7817      227.47717     -1513.2589      299.2701       1256.9093      3840.7412      0.99696119
    484000  -1253.8782      220.71311     -1474.5913      290.37127      2885.2937      3840.7412      0.99696119
    485000  -1262.0715      231.87457     -1493.946       305.05535      1293.3916      3840.7412      0.99696119
    486000  -1235.8946      233.22242     -1469.117       306.82859      1981.1688      3840.7412      0.99696119
    487000  -1278.9168      226.62259     -1505.5394      298.14581      2334.0136      3840.7412      0.99696119
    488000  -1269.9607      232.80835     -1502.769       306.28383      1093.2891      3840.7412      0.99696119
    489000  -1256.3646      230.30071     -1486.6653      302.98477      602.61008      3840.7412      0.99696119
    490000  -1257.5774      217.21686     -1474.7942      285.77159      2772.4995      3840.7412      0.99696119
    491000  -1263.4372      247.34118     -1510.7784      325.4033       501.29256      3840.7412      0.99696119
    492000  -1262.5832      219.35625     -1481.9395      288.58618      93.453022      3840.7412      0.99696119
    493000  -1256.1315      225.65288     -1481.7843      296.87006     -919.10813      3840.7412      0.99696119
    494000  -1268.651       206.65665     -1475.3077      271.87852     -495.61702      3840.7412      0.99696119
    495000  -1275.0905      219.6306      -1494.7211      288.94711      251.75701      3840.7412      0.99696119
    496000  -1282.8984      219.8042      -1502.7026      289.1755      -880.28539      3840.7412      0.99696119
    497000  -1266.406       224.65252     -1491.0585      295.55399     -231.27531      3840.7412      0.99696119
    498000  -1271.6998      216.7288      -1488.4286      285.12949      234.82215      3840.7412      0.99696119
    499000  -1258.8783      208.377       -1467.2553      274.14182      407.04137      3840.7412      0.99696119
    500000  -1237.5974      238.06381     -1475.6612      313.19794      696.96841      3840.7412      0.99696119
    501000  -1238.4487      233.2868      -1471.7355      306.91328     -768.87635      3840.7412      0.99696119
    502000  -1254.501       229.46611     -1483.9671      301.88676      13.700855      3840.7412      0.99696119
    503000  -1275.6919      215.1701      -1490.862       283.07885      340.27432      3840.7412      0.99696119
    504000  -1277.8296      235.31801     -1513.1476      309.58555     -908.95007      3840.7412      0.99696119
    505000  -1290.4427      225.69893     -1516.1417      296.93065     -482.2063       3840.7412      0.99696119
    506000  -1257.5734      233.9512      -1491.5246      307.78736      89.046611      3840.7412      0.99696119
    507000  -1299.7367      221.33383     -1521.0705      291.1879       1404.9643      3840.7412      0.99696119
    508000  -1290.0265      214.70297     -1504.7295      282.4643       1234.1687      3840.7412      0.99696119
    509000  -1244.2739      223.21364     -1467.4875      293.66099     -1293.8352      3840.7412      0.99696119
    510000  -1264.6148      232.98897     -1497.6038      306.52145     -1907.4886      3840.7412      0.99696119
    511000  -1268.1474      234.96629     -1503.1137      309.12283     -652.01199      3840.7412      0.99696119
    512000  -1250.9907      208.28983     -1459.2805      274.02714     -1254.9308      3840.7412      0.99696119
    513000  -1225.8059      245.13451     -1470.9404      322.50019      1209.6594      3840.7412      0.99696119
    514000  -1234.3929      218.53351     -1452.9264      287.50378     -3420.1787      3840.7412      0.99696119
    515000  -1231.1235      226.08738     -1457.2109      297.44169      2660.2831      3840.7412      0.99696119
    516000  -1248.0324      222.82621     -1470.8586      293.15128      543.31333      3840.7412      0.99696119
    517000  -1258.9338      222.25337     -1481.1872      292.39765      1201.1489      3840.7412      0.99696119
    518000  -1234.4905      241.60869     -1476.0992      317.86161     -548.79054      3840.7412      0.99696119
    519000  -1268.1854      216.14704     -1484.3324      284.36413     -1750.9842      3840.7412      0.99696119
    520000  -1221.9         244.57919     -1466.4792      321.76961     -777.0569       3840.7412      0.99696119
    521000  -1254.7472      227.93634     -1482.6836      299.87419     -1067.4086      3840.7412      0.99696119
    522000  -1258.8768      236.41459     -1495.2913      311.02822      499.9329       3840.7412      0.99696119
    523000  -1276.1215      207.14897     -1483.2705      272.52623      21.575745      3840.7412      0.99696119
    524000  -1253.5146      229.31218     -1482.8268      301.68425      357.73133      3840.7412      0.99696119
    525000  -1240.9494      239.79489     -1480.7443      315.47536     -468.05784      3840.7412      0.99696119
    526000  -1266.351       222.12825     -1488.4792      292.23303     -297.45877      3840.7412      0.99696119
    527000  -1238.9815      229.63742     -1468.6189      302.11214     -836.91944      3840.7412      0.99696119
    528000  -1214.9002      241.76953     -1456.6697      318.07321     -52.412486      3840.7412      0.99696119
    529000  -1257.9252      221.86128     -1479.7865      291.88182     -1847.9839      3840.7412      0.99696119
    530000  -1230.2557      221.39621     -1451.6519      291.26996     -1473.1766      3840.7412      0.99696119
    531000  -1284.3988      231.11184     -1515.5106      304.05189     -2109.8746      3840.7412      0.99696119
    532000  -1258.6008      215.25492     -1473.8557      283.19045      808.55852      3840.7412      0.99696119
    533000  -1262.5039      209.80942     -1472.3134      276.02633     -587.37628      3840.7412      0.99696119
    534000  -1226.713       229.77498     -1456.4879      302.29311      378.42805      3840.7412      0.99696119
    535000  -1213.5918      242.62618     -1456.218       319.20022      1159.8992      3840.7412      0.99696119
    536000  -1239.2974      254.23402     -1493.5314      334.47155      100.85244      3840.7412      0.99696119
    537000  -1271.7595      221.71143     -1493.471       291.68466     -1414.8888      3840.7412      0.99696119
    538000  -1235.5372      232.49277     -1468.03        305.86865      183.51341      3840.7412      0.99696119
    539000  -1226.1274      244.56491     -1470.6923      321.75082      530.1427       3840.7412      0.99696119
    540000  -1241.7012      233.2274      -1474.9286      306.83514     -1983.5476      3840.7412      0.99696119
    541000  -1285.0152      227.31837     -1512.3336      299.06119      999.87356      3840.7412      0.99696119
    542000  -1262.4265      248.80242     -1511.2289      327.32571      129.75046      3840.7412      0.99696119
    543000  -1267.7236      236.80339     -1504.527       311.53973      214.47763      3840.7412      0.99696119
    544000  -1246.3297      215.76561     -1462.0953      283.86232     -1504.177       3840.7412      0.99696119
    545000  -1246.6292      222.25682     -1468.886       292.40218     -1320.1352      3840.7412      0.99696119
    546000  -1252.5478      250.80747     -1503.3553      329.96357     -1417.6344      3840.7412      0.99696119
    547000  -1278.9813      219.21887     -1498.2002      288.40544      185.69124      3840.7412      0.99696119
    548000  -1225.7404      227.00221     -1452.7426      298.64525     -923.15747      3840.7412      0.99696119
    549000  -1244.8496      232.38903     -1477.2386      305.73217      229.69337      3840.7412      0.99696119
    550000  -1234.0964      223.42636     -1457.5228      293.94084      156.79508      3840.7412      0.99696119
    551000  -1233.4392      221.21909     -1454.6583      291.03694     -173.92495      3840.7412      0.99696119
    552000  -1220.4415      223.2731      -1443.7146      293.73921      2001.1833      3840.7412      0.99696119
    553000  -1267.1193      222.10316     -1489.2224      292.20002     -694.79168      3840.7412      0.99696119
    554000  -1242.2809      233.62416     -1475.905       307.35712      2038.103       3840.7412      0.99696119
    555000  -1284.0894      214.15944     -1498.2488      281.74923      831.58198      3840.7412      0.99696119
    556000  -1263.8921      228.9383      -1492.8304      301.19238      480.10611      3840.7412      0.99696119
    557000  -1240.4643      235.9265      -1476.3908      310.38609     -1941.8926      3840.7412      0.99696119
    558000  -1265.4041      221.64039     -1487.0445      291.59121     -1268.3744      3840.7412      0.99696119
    559000  -1232.6624      228.65435     -1461.3168      300.81881     -156.75475      3840.7412      0.99696119
    560000  -1236.2437      234.42994     -1470.6736      308.4172      -505.36263      3840.7412      0.99696119
    561000  -1272.2073      217.37514     -1489.5824      285.97982      139.34877      3840.7412      0.99696119
    562000  -1254.7029      240.19322     -1494.8962      315.99941     -142.05739      3840.7412      0.99696119
    563000  -1284.6732      228.02369     -1512.6969      299.98911      744.46018      3840.7412      0.99696119
    564000  -1275.9144      226.06939     -1501.9838      297.41802      692.09984      3840.7412      0.99696119
    565000  -1258.2948      201.6653      -1459.9601      265.31187     -168.86374      3840.7412      0.99696119
    566000  -1250.1545      235.01497     -1485.1695      309.18687     -120.56307      3840.7412      0.99696119
    567000  -1257.3183      232.45106     -1489.7693      305.81378      852.806        3840.7412      0.99696119
    568000  -1282.6277      216.01443     -1498.6422      284.18967     -521.07107      3840.7412      0.99696119
    569000  -1241.9046      234.52879     -1476.4334      308.54726      474.09818      3840.7412      0.99696119
    570000  -1251.2621      240.73502     -1491.9971      316.7122       1248.5673      3840.7412      0.99696119
    571000  -1263.3797      225.2135      -1488.5932      296.292        504.01198      3840.7412      0.99696119
    572000  -1245.9744      218.00634     -1463.9808      286.81024      377.4559       3840.7412      0.99696119
    573000  -1265.528       233.5984      -1499.1264      307.32322     -1809.4791      3840.7412      0.99696119
    574000  -1250.6742      216.15569     -1466.8299      284.37551     -1858.3906      3840.7412      0.99696119
    575000  -1222.9453      240.14481     -1463.0901      315.93571      552.78717      3840.7412      0.99696119
    576000  -1267.8933      226.93957     -1494.8328      298.56283      99.043556      3840.7412      0.99696119
    577000  -1278.6535      225.07865     -1503.7321      296.11459     -1904.0455      3840.7412      0.99696119
    578000  -1305.7239      212.44549     -1518.1694      279.49434     -228.39         3840.7412      0.99696119
    579000  -1251.5966      227.43587     -1479.0324      299.21577     -154.17873      3840.7412      0.99696119
    580000  -1243.5923      223.56        -1467.1524      294.11666      64.297961      3840.7412      0.99696119
    581000  -1279.2091      222.19089     -1501.4         292.31544      114.15915      3840.7412      0.99696119
    582000  -1273.3425      206.33166     -1479.6742      271.45096      572.3122       3840.7412      0.99696119
    583000  -1280.1081      205.23679     -1485.3449      270.01055      387.93855      3840.7412      0.99696119
    584000  -1275.8102      222.28028     -1498.0905      292.43305     -451.32594      3840.7412      0.99696119
    585000  -1240.9242      242.67952     -1483.6037      319.27039      1041.0885      3840.7412      0.99696119
    586000  -1233.2103      225.81144     -1459.0217      297.07866     -1.4235404      3840.7412      0.99696119
    587000  -1257.5352      219.98598     -1477.5212      289.41465     -878.28724      3840.7412      0.99696119
    588000  -1219.5873      250.18267     -1469.77        329.14158     -1451.8974      3840.7412      0.99696119
    589000  -1271.9428      227.66896     -1499.6118      299.52242     -94.329539      3840.7412      0.99696119
    590000  -1264.6237      223.9256      -1488.5493      294.59764     -222.74539      3840.7412      0.99696119
    591000  -1266.9291      228.1214      -1495.0505      300.11765     -1208.4049      3840.7412      0.99696119
    592000  -1248.3709      217.59192     -1465.9628      286.26502      339.91747      3840.7412      0.99696119
    593000  -1229.9454      227.47022     -1457.4156      299.26096      898.8357       3840.7412      0.99696119
    594000  -1289.378       211.3235      -1500.7015      278.01826     -255.22577      3840.7412      0.99696119
    595000  -1240.2333      229.13852     -1469.3718      301.45579      65.880351      3840.7412      0.99696119
    596000  -1257.9907      225.60665     -1483.5973      296.80924     -1782.0653      3840.7412      0.99696119
    597000  -1242.3062      235.69641     -1478.0026      310.08338      384.47963      3840.7412      0.99696119
    598000  -1305.315       217.662       -1522.977       286.35722      1610.5378      3840.7412      0.99696119
    599000  -1258.7938      215.39901     -1474.1928      283.38002      1104.4129      3840.7412      0.99696119
    600000  -1293.5457      220.46136     -1514.007       290.04007      414.66561      3840.7412      0.99696119
    601000  -1255.032       219.06893     -1474.1009      288.20818     -386.12969      3840.7412      0.99696119
    602000  -1296.2924      218.92647     -1515.2188      288.02077     -203.76808      3840.7412      0.99696119
    603000  -1268.4391      226.74624     -1495.1853      298.30849     -239.05452      3840.7412      0.99696119
    604000  -1240.7889      261.23357     -1502.0224      343.68019      2900.0263      3840.7412      0.99696119
    605000  -1267.7635      209.70775     -1477.4712      275.89256     -657.46036      3840.7412      0.99696119
    606000  -1247.3533      238.44468     -1485.798       313.69901     -362.20124      3840.7412      0.99696119
    607000  -1275.9323      223.08054     -1499.0128      293.48588     -408.37787      3840.7412      0.99696119
    608000  -1268.4322      213.98053     -1482.4127      281.51386     -328.42907      3840.7412      0.99696119
    609000  -1227.6526      221.87477     -1449.5274      291.89956     -751.91161      3840.7412      0.99696119
    610000  -1232.6252      225.32718     -1457.9524      296.44156      822.15464      3840.7412      0.99696119
    611000  -1270.4979      220.3494      -1490.8473      289.89277     -604.28801      3840.7412      0.99696119
    612000  -1262.4732      228.48212     -1490.9553      300.59222     -163.40239      3840.7412      0.99696119
    613000  -1255.41        228.91842     -1484.3284      301.16622      540.38027      3840.7412      0.99696119
    614000  -1209.8428      235.52175     -1445.3646      309.8536       280.23924      3840.7412      0.99696119
    615000  -1293.1712      210.83798     -1504.0092      277.3795      -930.43007      3840.7412      0.99696119
    616000  -1255.172       231.69963     -1486.8717      304.82519      1013.5645      3840.7412      0.99696119
    617000  -1269.7638      219.11632     -1488.8801      288.27053      326.25523      3840.7412      0.99696119
    618000  -1270.0781      216.87204     -1486.9502      285.31794      89.649272      3840.7412      0.99696119
    619000  -1255.1481      246.18891     -1501.337       323.88736     -906.2069       3840.7412      0.99696119
    620000  -1272.1247      228.96985     -1501.0945      301.23388      794.32555      3840.7412      0.99696119
    621000  -1256.5271      231.99723     -1488.5243      305.21672      166.59139      3840.7412      0.99696119
    622000  -1230.812       237.44482     -1468.2569      312.3836       2137.4626      3840.7412      0.99696119
    623000  -1239.6804      234.78659     -1474.467       308.88641      591.71401      3840.7412      0.99696119
    624000  -1258.736       217.5462      -1476.2822      286.20487     -234.22365      3840.7412      0.99696119
    625000  -1278.1532      209.82856     -1487.9817      276.0515       290.97162      3840.7412      0.99696119
    626000  -1239.6548      227.95264     -1467.6075      299.89563      678.71488      3840.7412      0.99696119
    627000  -1258.4377      220.79374     -1479.2314      290.47734     -2010.8726      3840.7412      0.99696119
    628000  -1243.3045      214.2065      -1457.511       281.81114      504.28303      3840.7412      0.99696119
    629000  -1236.8382      234.87126     -1471.7094      308.99781      43.767381      3840.7412      0.99696119
    630000  -1262.1719      208.7422      -1470.9141      274.62228      580.59704      3840.7412      0.99696119
    631000  -1277.9939      213.13634     -1491.1303      280.40324      1627.0742      3840.7412      0.99696119
    632000  -1300.0238      209.82248     -1509.8463      276.04351     -1343.439       3840.7412      0.99696119
    633000  -1259.4574      226.23885     -1485.6963      297.64096     -855.19079      3840.7412      0.99696119
    634000  -1235.3837      230.11638     -1465.5         302.74226     -697.20762      3840.7412      0.99696119
    635000  -1232.3378      231.17153     -1463.5093      304.13042     -168.68597      3840.7412      0.99696119
    636000  -1267.2896      222.8742      -1490.1638      293.21441     -532.92823      3840.7412      0.99696119
    637000  -1286.5651      203.10217     -1489.6673      267.20223      559.71396      3840.7412      0.99696119
    638000  -1259.4022      238.76642     -1498.1686      314.1223       1159.8073      3840.7412      0.99696119
    639000  -1258.8561      218.49131     -1477.3474      287.44826     -221.80486      3840.7412      0.99696119
    640000  -1209.1289      244.16964     -1453.2985      321.2308       2926.2217      3840.7412      0.99696119
    641000  -1241.874       241.09081     -1482.9648      317.18028      2566.2471      3840.7412      0.99696119
    642000  -1234.7296      235.90574     -1470.6353      310.35877      1454.143       3840.7412      0.99696119
    643000  -1266.7303      219.12084     -1485.8512      288.27647      1008.4587      3840.7412      0.99696119
    644000  -1284.7094      215.2183      -1499.9277      283.14227      453.73045      3840.7412      0.99696119
    645000  -1274.9219      219.31568     -1494.2376      288.53281     -1271.2272      3840.7412      0.99696119
    646000  -1281.1515      223.2693      -1504.4208      293.7342       552.12186      3840.7412      0.99696119
    647000  -1285.1544      213.79899     -1498.9534      281.27502      1706.6513      3840.7412      0.99696119
    648000  -1256.5287      235.41361     -1491.9423      309.71133      128.31837      3840.7412      0.99696119
    649000  -1259.0573      211.65631     -1470.7137      278.45611     -684.18794      3840.7412      0.99696119
    650000  -1227.3827      226.94577     -1454.3285      298.57099     -500.27338      3840.7412      0.99696119
[...]
   2842000  -1259.782       219.86194     -1479.6439      289.25147      164.20675      3840.7412      0.99696119
   2843000  -1250.0273      216.09977     -1466.127       284.30194     -676.18731      3840.7412      0.99696119
   2844000  -1269.8803      216.43649     -1486.3167      284.74493      318.37404      3840.7412      0.99696119
   2845000  -1253.0146      225.72272     -1478.7373      296.96194     -1669.6574      3840.7412      0.99696119
   2846000  -1235.915       228.61824     -1464.5333      300.7713       804.39301      3840.7412      0.99696119
   2847000  -1232.7109      231.15968     -1463.8705      304.11483      173.8687       3840.7412      0.99696119
   2848000  -1255.4379      214.73753     -1470.1754      282.50977      2715.9095      3840.7412      0.99696119
   2849000  -1256.7286      203.36377     -1460.0924      267.5464      -998.50887      3840.7412      0.99696119
   2850000  -1230.865       230.68491     -1461.5499      303.49022      696.84416      3840.7412      0.99696119
   2851000  -1270.6197      222.82726     -1493.447       293.15266      1752.958       3840.7412      0.99696119
   2852000  -1231.262       239.56171     -1470.8238      315.16859      733.73713      3840.7412      0.99696119
   2853000  -1266.4162      206.8953      -1473.3115      272.1925       615.58368      3840.7412      0.99696119
   2854000  -1260.6705      240.88042     -1501.5509      316.90349     -315.1386       3840.7412      0.99696119
   2855000  -1285.687       216.81323     -1502.5003      285.24058     -461.90787      3840.7412      0.99696119
   2856000  -1289.2608      206.9258      -1496.1866      272.23262      741.51971      3840.7412      0.99696119
   2857000  -1261.1079      223.79842     -1484.9063      294.43032      1773.3625      3840.7412      0.99696119
   2858000  -1308.0484      210.21747     -1518.2659      276.56316      956.79749      3840.7412      0.99696119
   2859000  -1249.2369      231.13258     -1480.3695      304.07918      1139.3159      3840.7412      0.99696119
   2860000  -1229.4297      249.20644     -1478.6361      327.85724     -1108.8924      3840.7412      0.99696119
   2861000  -1274.4373      224.34198     -1498.7792      295.14543     -2202.0133      3840.7412      0.99696119
   2862000  -1253.9473      229.09258     -1483.0399      301.39535      79.107794      3840.7412      0.99696119
   2863000  -1248.4875      220.22404     -1468.7115      289.72785      2250.1516      3840.7412      0.99696119
   2864000  -1289.1863      196.19095     -1485.3773      258.1098      -1740.6649      3840.7412      0.99696119
   2865000  -1266.7683      240.30267     -1507.071       316.14339     -75.798966      3840.7412      0.99696119
   2866000  -1234.3563      226.36485     -1460.7211      297.80673      1932.5299      3840.7412      0.99696119
   2867000  -1193.1175      265.29853     -1458.416       349.02807      1315.0274      3840.7412      0.99696119
   2868000  -1263.0213      207.50144     -1470.5227      272.98993     -327.26484      3840.7412      0.99696119
   2869000  -1240.2626      226.52692     -1466.7896      298.01995      1395.3637      3840.7412      0.99696119
   2870000  -1275.5025      214.02073     -1489.5232      281.56674     -741.63088      3840.7412      0.99696119
   2871000  -1259.0337      244.51918     -1503.5529      321.69066     -1731.0131      3840.7412      0.99696119
   2872000  -1256.8014      220.81975     -1477.6212      290.51156      761.09373      3840.7412      0.99696119
   2873000  -1227.054       226.49943     -1453.5534      297.98379     -1124.5946      3840.7412      0.99696119
   2874000  -1261.3798      224.18577     -1485.5656      294.93993      903.19616      3840.7412      0.99696119
   2875000  -1264.6923      225.12401     -1489.8163      296.17427     -505.36961      3840.7412      0.99696119
   2876000  -1227.9535      221.54667     -1449.5002      291.46791      1208.1314      3840.7412      0.99696119
   2877000  -1268.6603      218.73367     -1487.394       287.76711     -698.18013      3840.7412      0.99696119
   2878000  -1247.9162      222.55666     -1470.4729      292.79665     -486.30333      3840.7412      0.99696119
   2879000  -1261.9899      235.18557     -1497.1754      309.41132      947.06433      3840.7412      0.99696119
   2880000  -1227.1276      221.00917     -1448.1368      290.76077      2081.4384      3840.7412      0.99696119
   2881000  -1278.0439      213.09283     -1491.1367      280.346       -635.37541      3840.7412      0.99696119
   2882000  -1281.2476      220.7879      -1502.0355      290.46966      1710.6984      3840.7412      0.99696119
   2883000  -1278.8426      207.94325     -1486.7859      273.57118     -488.96398      3840.7412      0.99696119
   2884000  -1264.9039      235.74513     -1500.6491      310.14747      814.92156      3840.7412      0.99696119
   2885000  -1232.192       242.0748      -1474.2668      318.47482      1419.5269      3840.7412      0.99696119
   2886000  -1280.8984      219.61404     -1500.5124      288.92533     -1183.0675      3840.7412      0.99696119
   2887000  -1264.4171      221.97682     -1486.3939      292.03382      604.60404      3840.7412      0.99696119
   2888000  -1256.2226      235.87571     -1492.0983      310.31926      1022.3296      3840.7412      0.99696119
   2889000  -1284.2914      223.89456     -1508.186       294.5568       1661.3798      3840.7412      0.99696119
   2890000  -1276.2309      245.99119     -1522.2221      323.62725      1464.5903      3840.7412      0.99696119
   2891000  -1229.6569      216.27174     -1445.9287      284.52819      603.95645      3840.7412      0.99696119
   2892000  -1257.9013      230.16871     -1488.07        302.8111       322.38206      3840.7412      0.99696119
   2893000  -1271.6512      211.48819     -1483.1394      278.23492     -1845.5065      3840.7412      0.99696119
   2894000  -1285.0532      220.08604     -1505.1392      289.5463      -307.33174      3840.7412      0.99696119
   2895000  -1223.7981      239.31692     -1463.115       314.84653      1450.2048      3840.7412      0.99696119
   2896000  -1254.4733      228.09032     -1482.5637      300.07677      174.08765      3840.7412      0.99696119
   2897000  -1246.316       234.58376     -1480.8998      308.61957      368.87023      3840.7412      0.99696119
   2898000  -1228.6607      243.11094     -1471.7717      319.83797     -665.33713      3840.7412      0.99696119
   2899000  -1243.0172      233.98211     -1476.9993      307.82804     -164.41653      3840.7412      0.99696119
   2900000  -1236.1084      234.47375     -1470.5822      308.47483      2976.9374      3840.7412      0.99696119
   2901000  -1237.6336      219.5631      -1457.1967      288.85832     -478.21735      3840.7412      0.99696119
   2902000  -1259.969       221.82444     -1481.7935      291.83334     -1081.6636      3840.7412      0.99696119
   2903000  -1225.9104      236.19328     -1462.1037      310.73706     -1266.6749      3840.7412      0.99696119
   2904000  -1274.0679      211.45722     -1485.5252      278.19418     -434.78219      3840.7412      0.99696119
   2905000  -1273.353       215.2819      -1488.6349      283.22595      800.84872      3840.7412      0.99696119
   2906000  -1245.9382      226.60015     -1472.5383      298.1163      -322.75666      3840.7412      0.99696119
   2907000  -1254.8974      213.43251     -1468.3299      280.79287      1339.9462      3840.7412      0.99696119
   2908000  -1274.1797      223.13957     -1497.3193      293.56353      407.65768      3840.7412      0.99696119
   2909000  -1274.8408      228.71187     -1503.5526      300.89448      2679.4664      3840.7412      0.99696119
   2910000  -1286.0988      223.85546     -1509.9543      294.50536      408.35704      3840.7412      0.99696119
   2911000  -1259.5066      228.43792     -1487.9446      300.53407     -105.42413      3840.7412      0.99696119
   2912000  -1246.6231      212.0284      -1458.6515      278.94562      1757.2556      3840.7412      0.99696119
   2913000  -1227.4255      248.57955     -1476.005       327.0325       1081.8218      3840.7412      0.99696119
   2914000  -1261.9219      234.89926     -1496.8211      309.03465      1432.4171      3840.7412      0.99696119
   2915000  -1211.4107      228.25209     -1439.6628      300.28959      240.44426      3840.7412      0.99696119
   2916000  -1269.4162      210.15431     -1479.5705      276.48007      1708.5544      3840.7412      0.99696119
   2917000  -1275.1893      216.93341     -1492.1227      285.39868      892.4461       3840.7412      0.99696119
   2918000  -1261.3416      216.606       -1477.9475      284.96793      153.9735       3840.7412      0.99696119
   2919000  -1249.7815      235.52292     -1485.3045      309.85514     -1124.0574      3840.7412      0.99696119
   2920000  -1225.5592      228.20012     -1453.7593      300.22122     -210.06685      3840.7412      0.99696119
   2921000  -1233.9367      236.37043     -1470.3072      310.97012     -303.53764      3840.7412      0.99696119
   2922000  -1236.0446      242.90281     -1478.9474      319.56416      180.53647      3840.7412      0.99696119
   2923000  -1268.3263      238.1784      -1506.5047      313.34869     -874.18211      3840.7412      0.99696119
   2924000  -1247.8941      215.65116     -1463.5452      283.71175      1298.9456      3840.7412      0.99696119
   2925000  -1236.9219      257.35287     -1494.2747      338.57473      657.83381      3840.7412      0.99696119
   2926000  -1268.9435      215.41521     -1484.3588      283.40133     -1520.7484      3840.7412      0.99696119
   2927000  -1248.2089      236.00443     -1484.2133      310.48861     -2102.3956      3840.7412      0.99696119
   2928000  -1268.6268      228.84871     -1497.4755      301.0745      -42.160527      3840.7412      0.99696119
   2929000  -1238.1995      236.5026      -1474.7021      311.144        1087.6287      3840.7412      0.99696119
   2930000  -1222.3143      224.32083     -1446.6351      295.1176      -1144.0136      3840.7412      0.99696119
   2931000  -1258.2986      225.37555     -1483.6741      296.50521      1448.8285      3840.7412      0.99696119
   2932000  -1233.8964      223.50183     -1457.3982      294.04012     -3131.4561      3840.7412      0.99696119
   2933000  -1264.8324      213.90267     -1478.7351      281.41142     -249.69635      3840.7412      0.99696119
   2934000  -1239.2512      231.06367     -1470.3149      303.98852      296.60975      3840.7412      0.99696119
   2935000  -1286.2806      228.03421     -1514.3148      300.00295      1210.0085      3840.7412      0.99696119
   2936000  -1262.5929      225.35531     -1487.9482      296.47857      678.17068      3840.7412      0.99696119
   2937000  -1260.0611      219.91444     -1479.9755      289.32054      913.8212       3840.7412      0.99696119
   2938000  -1272.9676      219.74688     -1492.7145      289.10009     -808.71824      3840.7412      0.99696119
   2939000  -1288.6457      206.8716      -1495.5173      272.16131     -1033.8137      3840.7412      0.99696119
   2940000  -1206.6192      247.94236     -1454.5616      326.19421     -354.55977      3840.7412      0.99696119
   2941000  -1228.1494      230.88982     -1459.0393      303.7598       2787.44        3840.7412      0.99696119
   2942000  -1266.2346      222.77448     -1489.0091      293.08322     -1396.7022      3840.7412      0.99696119
   2943000  -1278.3829      212.16692     -1490.5498      279.12786      1647.3987      3840.7412      0.99696119
   2944000  -1237.6089      223.30973     -1460.9186      293.7874      -188.4592       3840.7412      0.99696119
   2945000  -1277.7422      227.78218     -1505.5243      299.67137      2805.2448      3840.7412      0.99696119
   2946000  -1267.3477      223.73576     -1491.0834      294.34789      394.18304      3840.7412      0.99696119
   2947000  -1270.195       253.91213     -1524.1071      334.04806     -1812.4887      3840.7412      0.99696119
   2948000  -1241.9156      203.59159     -1445.5071      267.84612      1538.1824      3840.7412      0.99696119
   2949000  -1275.5558      233.51894     -1509.0747      307.21869      1239.7241      3840.7412      0.99696119
   2950000  -1268.3298      236.45761     -1504.7874      311.08482      1294.8429      3840.7412      0.99696119
   2951000  -1255.2479      228.97505     -1484.2229      301.24072      1934.5796      3840.7412      0.99696119
   2952000  -1286.6372      220.10711     -1506.7443      289.57401     -734.86235      3840.7412      0.99696119
   2953000  -1240.0674      249.87534     -1489.9428      328.73725      859.04552      3840.7412      0.99696119
   2954000  -1253.2291      219.48981     -1472.719       288.76189     -693.87599      3840.7412      0.99696119
   2955000  -1252.875       237.99523     -1490.8703      313.10771      305.91091      3840.7412      0.99696119
   2956000  -1225.9769      219.82051     -1445.7974      289.19696      556.30916      3840.7412      0.99696119
   2957000  -1270.5788      206.36427     -1476.943       271.49387      669.05143      3840.7412      0.99696119
   2958000  -1235.7957      217.35889     -1453.1546      285.95845     -1641.5842      3840.7412      0.99696119
   2959000  -1209.0146      226.0271      -1435.0417      297.36239     -508.21162      3840.7412      0.99696119
   2960000  -1228.9966      227.59576     -1456.5924      299.42613     -250.71369      3840.7412      0.99696119
   2961000  -1275.7321      232.71246     -1508.4446      306.15767     -795.70173      3840.7412      0.99696119
   2962000  -1273.027       213.04678     -1486.0737      280.28541      1725.1841      3840.7412      0.99696119
   2963000  -1267.6011      220.39504     -1487.9962      289.95282     -844.66623      3840.7412      0.99696119
   2964000  -1234.6113      218.67751     -1453.2888      287.69323     -2231.7051      3840.7412      0.99696119
   2965000  -1254.9913      229.83975     -1484.8311      302.37832     -793.85442      3840.7412      0.99696119
   2966000  -1231.0527      232.11004     -1463.1628      305.36513      454.0597       3840.7412      0.99696119
   2967000  -1239.6193      246.82654     -1486.4458      324.72624     -1288.725       3840.7412      0.99696119
   2968000  -1287.9986      212.83878     -1500.8374      280.01177     -300.6559       3840.7412      0.99696119
   2969000  -1247.0597      227.31283     -1474.3725      299.0539       167.96876      3840.7412      0.99696119
   2970000  -1250.7071      242.00025     -1492.7074      318.37674      461.10804      3840.7412      0.99696119
   2971000  -1261.2975      238.53199     -1499.8295      313.81388      1553.6669      3840.7412      0.99696119
   2972000  -1243.9394      226.13304     -1470.0725      297.50176     -92.395191      3840.7412      0.99696119
   2973000  -1236.9272      240.17921     -1477.1065      315.98097      268.36054      3840.7412      0.99696119
   2974000  -1237.4985      216.70145     -1454.1999      285.09351      1561.0023      3840.7412      0.99696119
   2975000  -1264.8988      209.22279     -1474.1216      275.25455      1720.2244      3840.7412      0.99696119
   2976000  -1270.5592      220.20963     -1490.7688      289.7089       574.37529      3840.7412      0.99696119
   2977000  -1261.1671      215.94821     -1477.1153      284.10254      658.26088      3840.7412      0.99696119
   2978000  -1260.8423      216.54188     -1477.3842      284.88358      218.60362      3840.7412      0.99696119
   2979000  -1262.4872      235.44874     -1497.9359      309.75754      105.46792      3840.7412      0.99696119
   2980000  -1261.5802      211.07524     -1472.6555      277.69165     -1073.8681      3840.7412      0.99696119
   2981000  -1238.6005      248.22481     -1486.8253      326.5658       1109.2577      3840.7412      0.99696119
   2982000  -1254.4794      237.10362     -1491.5831      311.93472     -639.1363       3840.7412      0.99696119
   2983000  -1283.164       230.27526     -1513.4392      302.95128     -1893.4564      3840.7412      0.99696119
   2984000  -1273.4258      222.57769     -1496.0035      292.82432      623.83409      3840.7412      0.99696119
   2985000  -1249.2777      229.12645     -1478.4041      301.4399       564.24324      3840.7412      0.99696119
   2986000  -1236.8062      226.74936     -1463.5556      298.3126       19.906082      3840.7412      0.99696119
   2987000  -1256.0954      210.82187     -1466.9173      277.35831      333.09162      3840.7412      0.99696119
   2988000  -1278.3035      229.57416     -1507.8777      302.02892      210.13223      3840.7412      0.99696119
   2989000  -1246.5717      223.86681     -1470.4385      294.5203      -571.88898      3840.7412      0.99696119
   2990000  -1202.4832      243.43634     -1445.9195      320.26607      1523.4563      3840.7412      0.99696119
   2991000  -1243.0236      233.35031     -1476.3739      306.99684      1002.907       3840.7412      0.99696119
   2992000  -1247.7733      221.27074     -1469.0441      291.10489      458.5695       3840.7412      0.99696119
   2993000  -1244.7511      228.96402     -1473.7151      301.22621      548.91502      3840.7412      0.99696119
   2994000  -1264.6801      228.13871     -1492.8188      300.14042      490.16701      3840.7412      0.99696119
   2995000  -1287.1326      241.53495     -1528.6675      317.76459     -181.11995      3840.7412      0.99696119
   2996000  -1243.3662      231.49747     -1474.8637      304.55923      581.96781      3840.7412      0.99696119
   2997000  -1298.329       210.55574     -1508.8847      277.00819      188.4804       3840.7412      0.99696119
   2998000  -1279.0798      216.86181     -1495.9416      285.30448     -1245.0532      3840.7412      0.99696119
   2999000  -1249.6419      227.56236     -1477.2043      299.38218     -419.42816      3840.7412      0.99696119
   3000000  -1277.7065      223.99882     -1501.7054      294.69397      713.32824      3840.7412      0.99696119
Loop time of 2344.53 on 2 procs for 2000000 steps with 384 atoms

Performance: 73.704 ns/day, 0.326 hours/ns, 853.051 timesteps/s
99.7% CPU use with 2 MPI tasks x 1 OpenMP threads

MPI task timing breakdown:
Section |  min time  |  avg time  |  max time  |%varavg| %total
---------------------------------------------------------------
Pair    | 1518.8     | 1524.5     | 1530.1     |  14.4 | 65.02
Bond    | 0.18206    | 0.19317    | 0.20429    |   2.5 |  0.01
Kspace  | 436.65     | 440.26     | 443.87     |  17.2 | 18.78
Neigh   | 111.07     | 111.07     | 111.07     |   0.0 |  4.74
Comm    | 154.16     | 156.21     | 158.26     |  16.4 |  6.66
Output  | 0.54499    | 0.55108    | 0.55717    |   0.8 |  0.02
Modify  | 105.55     | 105.7      | 105.85     |   1.5 |  4.51
Other   |            | 6.055      |            |       |  0.26

Nlocal:            192 ave         197 max         187 min
Histogram: 1 0 0 0 0 0 0 0 0 1
Nghost:         4832.5 ave        4840 max        4825 min
Histogram: 1 0 0 0 0 0 0 0 0 1
Neighs:        69358.5 ave       71656 max       67061 min
Histogram: 1 0 0 0 0 0 0 0 0 1

Total # of neighbors = 138717
Ave neighs/atom = 361.24219
Ave special neighs/atom = 2
Neighbor list builds = 68056
Dangerous builds = 0

# write data file
write_data data.after_prod.lmp
System init for write_data ...
PPPM initialization ...
  using 12-bit tables for long-range coulomb (src/kspace.cpp:342)
  G vector (1/distance) = 0.31203871
  grid = 15 15 15
  stencil order = 5
  estimated absolute RMS force accuracy = 0.0022228175
  estimated relative force accuracy = 6.6939488e-06
  using double precision FFTW3
  3d grid and FFT values/proc = 6776 1800
Generated 1 of 1 mixed pair_coeff terms from geometric mixing rule

# clean up
undump dPROD
unfix fTHERMO
unfix fMOM
unfix fSHAKE
Total wall time: 0:58:36
