LAMMPS (23 Jun 2022 - Update 4)
  using 1 OpenMP thread(s) per MPI task
# created by fftool

# System settings
units real
boundary p p p  # Periodic boundary conditions

# definition of atoms, bonds, angles
atom_style full
bond_style harmonic
angle_style harmonic

# definition of pair potentials
special_bonds lj/coul 0.0 0.0 0.5
pair_style lj/cut/coul/long 10.0 10.0
pair_modify mix geometric tail yes
kspace_style pppm 1.0e-5

# read data file
read_data data.lmp
Reading data file ...
  orthogonal box = (0 0 0) to (12.42973 12.42973 12.42973)
  1 by 1 by 1 MPI processor grid
  reading atoms ...
  192 atoms
  scanning bonds ...
  1 = max bonds/atom
  scanning angles ...
  1 = max angles/atom
  reading bonds ...
  128 bonds
  reading angles ...
  64 angles
Finding 1-2 1-3 1-4 neighbors ...
  special bond factors lj:    0        0        0.5
  special bond factors coul:  0        0        0.5
     2 = max # of 1-2 neighbors
     1 = max # of 1-3 neighbors
     1 = max # of 1-4 neighbors
     2 = max # of special neighbors
  special bonds CPU = 0.000 seconds
  read_data CPU = 0.005 seconds

# definition of LJ parameters
pair_coeff    1    1     0.000000     0.000000  # Hw Hw
pair_coeff    2    2     0.163049     3.182090  # Ow-Ow

############################################

# remove energy hotspots
minimize 1.0e-4 1.0e-6 100 1000
WARNING: Using 'neigh_modify every 1 delay 0 check yes' setting during minimization (src/min.cpp:187)
PPPM initialization ...
  using 12-bit tables for long-range coulomb (src/kspace.cpp:342)
  G vector (1/distance) = 0.31260513
  grid = 12 12 12
  stencil order = 5
  estimated absolute RMS force accuracy = 0.0021455329
  estimated relative force accuracy = 6.4612085e-06
  using double precision FFTW3
  3d grid and FFT values/proc = 6859 1728
Generated 1 of 1 mixed pair_coeff terms from geometric mixing rule
Neighbor list info ...
  update every 1 steps, delay 0 steps, check yes
  max neighbors/atom: 2000, page size: 100000
  master list distance cutoff = 12
  ghost atom cutoff = 12
  binsize = 6, bins = 3 3 3
  1 neighbor lists, perpetual/occasional/extra = 1 0 0
  (1) pair lj/cut/coul/long, perpetual
      attributes: half, newton on
      pair build: half/bin/newton
      stencil: half/bin/3d
      bin: standard
Per MPI rank memory allocation (min/avg/max) = 8.742 | 8.742 | 8.742 Mbytes
   Step          Temp          E_pair         E_mol          TotEng         Press
         0   0              10333.466      3.4302151e-07  10333.466      1510227.2
       100   0             -960.05625      75.011514     -885.04473     -4411.0492
Loop time of 0.207594 on 1 procs for 100 steps with 192 atoms

99.6% CPU use with 1 MPI tasks x 1 OpenMP threads

Minimization stats:
  Stopping criterion = max iterations
  Energy initial, next-to-last, final =
      10333.4662890564  -883.912204573594  -885.044734173822
  Force two-norm initial, final = 58245.66 30.01125
  Force max component initial, final = 21216.96 6.4794588
  Final line search alpha, max atom move = 0.0066670902 0.043199136
  Iterations, force evaluations = 100 172

MPI task timing breakdown:
Section |  min time  |  avg time  |  max time  |%varavg| %total
---------------------------------------------------------------
Pair    | 0.17955    | 0.17955    | 0.17955    |   0.0 | 86.49
Bond    | 0.0006891  | 0.0006891  | 0.0006891  |   0.0 |  0.33
Kspace  | 0.020303   | 0.020303   | 0.020303   |   0.0 |  9.78
Neigh   | 0.0037278  | 0.0037278  | 0.0037278  |   0.0 |  1.80
Comm    | 0.0023766  | 0.0023766  | 0.0023766  |   0.0 |  1.14
Output  | 1.3084e-05 | 1.3084e-05 | 1.3084e-05 |   0.0 |  0.01
Modify  | 0          | 0          | 0          |   0.0 |  0.00
Other   |            | 0.0009326  |            |       |  0.45

Nlocal:            192 ave         192 max         192 min
Histogram: 1 0 0 0 0 0 0 0 0 0
Nghost:           4788 ave        4788 max        4788 min
Histogram: 1 0 0 0 0 0 0 0 0 0
Neighs:          69256 ave       69256 max       69256 min
Histogram: 1 0 0 0 0 0 0 0 0 0

Total # of neighbors = 69256
Ave neighs/atom = 360.70833
Ave special neighs/atom = 2
Neighbor list builds = 3
Dangerous builds = 0
reset_timestep 0

# constrain water bonds and angles
fix fSHAKE all shake 0.0001 20 0 b 1 a 1
       0 = # of size 2 clusters
       0 = # of size 3 clusters
       0 = # of size 4 clusters
      64 = # of frozen angles
  find clusters CPU = 0.000 seconds

# remove Center of Mass movement every 100 steps
fix fMOM all momentum 100 linear 1 1 1

# define the neighbor list
neighbor 2.0 bin

# IMPORTANT: timestep and temperature and pressure
timestep 1.0
variable vTK equal 298.15
variable vPBAR equal 1.0

# randomize velocities
velocity all create ${vTK} 28810
velocity all create 298.15 28810

# thermostat (solving the ODE)
fix fTHERMO all nvt temp ${vTK} ${vTK} 100
fix fTHERMO all nvt temp 298.15 ${vTK} 100
fix fTHERMO all nvt temp 298.15 298.15 100

# print settings
thermo 1000
thermo_style custom step etotal ke pe temp press vol density
# trajectory output
dump dEQUI all custom 1000 equi.lammpstrj id element xu yu zu
dump_modify dEQUI element H O sort id

# equilibration
# 1 ns
run 1000000
PPPM initialization ...
  using 12-bit tables for long-range coulomb (src/kspace.cpp:342)
  G vector (1/distance) = 0.31260513
  grid = 12 12 12
  stencil order = 5
  estimated absolute RMS force accuracy = 0.0021455329
  estimated relative force accuracy = 6.4612085e-06
  using double precision FFTW3
  3d grid and FFT values/proc = 6859 1728
Generated 1 of 1 mixed pair_coeff terms from geometric mixing rule
Per MPI rank memory allocation (min/avg/max) = 9.759 | 9.759 | 9.759 Mbytes
   Step         TotEng         KinEng         PotEng          Temp          Press          Volume        Density
         0  -847.18773      112.86852     -960.05625      298.15         9453.3549      1920.3708      0.9969611
      1000  -636.92823      108.53162     -745.45985      286.69378      844.92063      1920.3708      0.9969611
      2000  -629.74536      104.90102     -734.64638      277.1033       1557.7536      1920.3708      0.9969611
      3000  -640.72723      103.59836     -744.32559      273.66222     -579.10537      1920.3708      0.9969611
      4000  -612.75142      133.69795     -746.44937      353.17237      1970.6354      1920.3708      0.9969611
      5000  -651.164        102.42286     -753.58686      270.55706     -882.10064      1920.3708      0.9969611
      6000  -638.6772       118.81119     -757.48839      313.84796     -1252.9338      1920.3708      0.9969611
      7000  -652.03596      112.90426     -764.94023      298.24441     -964.93364      1920.3708      0.9969611
      8000  -648.85413      103.70508     -752.5592       273.94413     -872.81524      1920.3708      0.9969611
      9000  -660.52151      107.35825     -767.87976      283.59423     -1695.7005      1920.3708      0.9969611
     10000  -628.60937      105.94894     -734.55831      279.87146      2036.1343      1920.3708      0.9969611
     11000  -610.62344      108.23299     -718.85644      285.90493     -392.27414      1920.3708      0.9969611
     12000  -623.78676      110.4533      -734.24006      291.77003      1798.7927      1920.3708      0.9969611
     13000  -625.37227      118.10843     -743.4807       311.99158     -961.13688      1920.3708      0.9969611
     14000  -610.54154      137.68148     -748.22302      363.69515      2406.467       1920.3708      0.9969611
     15000  -624.25663      115.83991     -740.09654      305.99914      3033.5565      1920.3708      0.9969611
     16000  -621.46824      100.81511     -722.28335      266.31009      626.90811      1920.3708      0.9969611
     17000  -643.93281      107.48202     -751.41483      283.92119     -931.57359      1920.3708      0.9969611
     18000  -610.6927       134.48226     -745.17496      355.24419      1470.2824      1920.3708      0.9969611
     19000  -622.87437      110.03213     -732.90649      290.65747     -958.35937      1920.3708      0.9969611
     20000  -648.69368      100.9936      -749.68729      266.78159     -817.82951      1920.3708      0.9969611
     21000  -629.14911      107.24671     -736.39582      283.29961      2979.3343      1920.3708      0.9969611
     22000  -630.33936      113.35951     -743.69887      299.44699      1254.4234      1920.3708      0.9969611
     23000  -620.48367      109.9148      -730.39847      290.34754      500.28652      1920.3708      0.9969611
     24000  -634.5728       110.615       -745.1878       292.19717     -1301.5347      1920.3708      0.9969611
     25000  -634.70751      107.5317      -742.23921      284.05242      541.72586      1920.3708      0.9969611
     26000  -628.80784      119.16746     -747.9753       314.78908     -522.48125      1920.3708      0.9969611
     27000  -643.52921      107.98924     -751.51845      285.26104     -1281.6658      1920.3708      0.9969611
     28000  -617.808        113.56484     -731.37285      299.98938      1060.3834      1920.3708      0.9969611
     29000  -611.96739      112.76555     -724.73294      297.878        759.59321      1920.3708      0.9969611
     30000  -653.76464      110.42987     -764.19451      291.70814     -2211.79        1920.3708      0.9969611
     31000  -624.76919      114.94627     -739.71546      303.63851      102.19884      1920.3708      0.9969611
     32000  -651.7844       94.064897     -745.8493       248.47893     -1952.3267      1920.3708      0.9969611
     33000  -626.36096      114.06976     -740.43071      301.32314     -1221.7523      1920.3708      0.9969611
     34000  -639.44181      116.16764     -755.60945      306.86485      624.91705      1920.3708      0.9969611
     35000  -601.02017      121.83589     -722.85606      321.83791      807.10431      1920.3708      0.9969611
     36000  -639.48898      111.9014      -751.39038      295.59529     -159.76394      1920.3708      0.9969611
     37000  -623.93679      116.3592      -740.29599      307.37087      1206.5658      1920.3708      0.9969611
     38000  -625.1223       122.65662     -747.77892      324.00593     -359.64485      1920.3708      0.9969611
     39000  -623.33057      111.30124     -734.63181      294.00992      978.33823      1920.3708      0.9969611
     40000  -633.13496      111.00697     -744.14193      293.23259      406.87283      1920.3708      0.9969611
     41000  -603.08339      111.76898     -714.85237      295.2455      -2304.5408      1920.3708      0.9969611
     42000  -633.53799      103.38817     -736.92615      273.10699     -800.98163      1920.3708      0.9969611
     43000  -632.61476      110.80721     -743.42196      292.70489     -48.562171      1920.3708      0.9969611
     44000  -608.53421      118.32104     -726.85525      312.5532       435.15051      1920.3708      0.9969611
     45000  -642.43668      100.62212     -743.0588       265.80028      715.46796      1920.3708      0.9969611
     46000  -635.36391      108.41051     -743.77443      286.37387     -162.58838      1920.3708      0.9969611
     47000  -621.80162      109.26793     -731.06956      288.6388       979.53861      1920.3708      0.9969611
     48000  -638.75428      105.03217     -743.78645      277.44974      329.70578      1920.3708      0.9969611
     49000  -639.72049      105.69432     -745.41481      279.19886      1307.2058      1920.3708      0.9969611
     50000  -647.28891      113.74461     -761.03352      300.46424      596.91849      1920.3708      0.9969611
     51000  -630.44066      117.1655      -747.60617      309.50077     -32.810186      1920.3708      0.9969611
     52000  -659.90641      109.13499     -769.0414       288.28762      4645.3124      1920.3708      0.9969611
     53000  -657.39116      121.66157     -779.05273      321.37746     -871.51168      1920.3708      0.9969611
     54000  -644.94579      111.66575     -756.61154      294.9728      -2834.6024      1920.3708      0.9969611
     55000  -645.08499      117.72798     -762.81297      310.9866       949.8145       1920.3708      0.9969611
     56000  -633.42961      113.79129     -747.2209       300.58755      1889.4907      1920.3708      0.9969611
     57000  -603.07514      122.85173     -725.92687      324.52134      514.68857      1920.3708      0.9969611
     58000  -623.27466      124.34411     -747.61877      328.46355     -1698.2023      1920.3708      0.9969611
     59000  -612.80492      109.91885     -722.72377      290.35825     -1227.457       1920.3708      0.9969611
     60000  -642.25138      100.87323     -743.1246       266.4636      -1068.2625      1920.3708      0.9969611
     61000  -634.03753      117.3543      -751.39183      309.9995      -465.748        1920.3708      0.9969611
     62000  -619.0483       123.61904     -742.66735      326.54824     -2768.2093      1920.3708      0.9969611
     63000  -612.5647       117.80128     -730.36598      311.18022      1654.0728      1920.3708      0.9969611
     64000  -606.54707      124.00562     -730.55269      327.56941      2255.3692      1920.3708      0.9969611
     65000  -644.44402      107.42892     -751.87294      283.78092      40.640735      1920.3708      0.9969611
     66000  -655.87011      95.339723     -751.20983      251.84647     -690.86383      1920.3708      0.9969611
     67000  -616.8241       118.09697     -734.92107      311.96132      620.64381      1920.3708      0.9969611
     68000  -628.46843      121.02965     -749.49808      319.70818      3427.7583      1920.3708      0.9969611
     69000  -618.28709      113.78318     -732.07028      300.56614      1918.0987      1920.3708      0.9969611
     70000  -639.79293      107.04868     -746.84161      282.77647      472.44907      1920.3708      0.9969611
     71000  -606.87084      110.53503     -717.40588      291.98593      570.6707       1920.3708      0.9969611
     72000  -626.4054       119.03388     -745.43928      314.43621      462.79795      1920.3708      0.9969611
     73000  -623.85931      119.73674     -743.59606      316.29288     -2116.711       1920.3708      0.9969611
     74000  -641.33327      107.9287      -749.26197      285.10111      920.8922       1920.3708      0.9969611
     75000  -615.96336      121.31165     -737.27501      320.45311      1002.2235      1920.3708      0.9969611
     76000  -644.09504      117.10083     -761.19586      309.32992     -1581.6177      1920.3708      0.9969611
     77000  -639.89164      124.82215     -764.71379      329.72634      169.12361      1920.3708      0.9969611
     78000  -600.91837      118.03222     -718.95059      311.79027     -717.74376      1920.3708      0.9969611
     79000  -636.68241      123.97727     -760.65968      327.49452     -781.96674      1920.3708      0.9969611
     80000  -613.77316      125.3742      -739.14737      331.18463     -10.789727      1920.3708      0.9969611
     81000  -622.47175      108.98988     -731.46163      287.9043       261.10782      1920.3708      0.9969611
     82000  -628.57486      120.8008      -749.37566      319.10366     -248.91624      1920.3708      0.9969611
     83000  -603.5924       130.11058     -733.70298      343.69608     -1045.8587      1920.3708      0.9969611
     84000  -648.07694      99.560975     -747.63791      262.9972       94.023794      1920.3708      0.9969611
     85000  -623.75986      120.4857      -744.24556      318.27129      3013.5521      1920.3708      0.9969611
     86000  -647.29213      128.82823     -776.12036      340.30868     -1850.2058      1920.3708      0.9969611
     87000  -593.6008       127.73783     -721.33863      337.42831      1680.4838      1920.3708      0.9969611
     88000  -640.54626      108.43405     -748.98031      286.43605     -26.378951      1920.3708      0.9969611
     89000  -608.16569      120.22273     -728.38842      317.57664      1168.4205      1920.3708      0.9969611
     90000  -639.3394       108.33679     -747.6762       286.17913     -532.7844       1920.3708      0.9969611
     91000  -637.65721      111.98778     -749.64499      295.82346      1850.9522      1920.3708      0.9969611
     92000  -646.36283      114.50731     -760.87014      302.47897      4308.3409      1920.3708      0.9969611
     93000  -642.364        114.46092     -756.82493      302.35643      83.54298       1920.3708      0.9969611
     94000  -653.41873      111.2474      -764.66613      293.86769      1769.3646      1920.3708      0.9969611
     95000  -608.9143       124.01076     -732.92506      327.583        1846.5765      1920.3708      0.9969611
     96000  -621.83181      108.03797     -729.86977      285.38976     -774.66119      1920.3708      0.9969611
     97000  -647.87337      112.12501     -759.99838      296.18595      408.91362      1920.3708      0.9969611
     98000  -622.43546      118.09964     -740.5351       311.96837      375.42681      1920.3708      0.9969611
     99000  -639.75362      108.63453     -748.38815      286.96562      1804.9763      1920.3708      0.9969611
    100000  -633.55145      112.1397      -745.69115      296.22477     -657.50374      1920.3708      0.9969611
    101000  -641.17368      108.84156     -750.01524      287.51251      2537.2126      1920.3708      0.9969611
    102000  -638.66587      108.67352     -747.33939      287.06862      3476.5564      1920.3708      0.9969611
    103000  -616.10976      109.64697     -725.75673      289.64005      3517.0579      1920.3708      0.9969611
    104000  -653.22228      97.51892      -750.7412       257.60297     -1284.3684      1920.3708      0.9969611
    105000  -634.09966      111.90829     -746.00796      295.61349     -664.24718      1920.3708      0.9969611
    106000  -616.41455      126.67384     -743.08839      334.61771     -828.89802      1920.3708      0.9969611
    107000  -631.58062      106.07184     -737.65246      280.19609      1439.9654      1920.3708      0.9969611
    108000  -645.7632       105.2669      -751.0301       278.0698      -1403.5591      1920.3708      0.9969611
    109000  -607.86822      112.76109     -720.6293       297.8662       735.02147      1920.3708      0.9969611
    110000  -639.64996      110.97662     -750.62657      293.1524      -1099.7214      1920.3708      0.9969611
    111000  -615.61201      111.37712     -726.98913      294.21035      1063.1086      1920.3708      0.9969611
    112000  -627.91752      108.13833     -736.05585      285.65487      2007.5823      1920.3708      0.9969611
    113000  -621.76128      116.74031     -738.50159      308.37759     -868.90613      1920.3708      0.9969611
    114000  -640.7879       101.16673     -741.95464      267.23892     -1049.2304      1920.3708      0.9969611
    115000  -650.82468      108.53699     -759.36167      286.70797      2503.1813      1920.3708      0.9969611
    116000  -666.52691      103.18662     -769.71353      272.57459      3433.3424      1920.3708      0.9969611
    117000  -624.47642      108.20454     -732.68096      285.82977     -989.25159      1920.3708      0.9969611
    118000  -654.77648      92.617767     -747.39425      244.65623     -933.79001      1920.3708      0.9969611
    119000  -610.49605      114.54151     -725.03756      302.56931      120.71956      1920.3708      0.9969611
    120000  -612.061        108.84501     -720.90601      287.52163     -457.22077      1920.3708      0.9969611
    121000  -590.00999      112.89609     -702.90608      298.22283      2149.7137      1920.3708      0.9969611
    122000  -620.98062      122.20635     -743.18697      322.81651      2036.2024      1920.3708      0.9969611
    123000  -618.4749       111.39371     -729.86861      294.25419     -213.03688      1920.3708      0.9969611
    124000  -619.13732      116.87571     -736.01303      308.73527      316.18747      1920.3708      0.9969611
    125000  -631.57656      111.03365     -742.61021      293.30305     -2246.0747      1920.3708      0.9969611
    126000  -644.78211      114.37598     -759.15809      302.13206      2349.7711      1920.3708      0.9969611
    127000  -634.50185      108.68161     -743.18346      287.08998      2999.6561      1920.3708      0.9969611
    128000  -630.63193      109.96238     -740.59431      290.47322     -1728.2178      1920.3708      0.9969611
    129000  -613.93306      121.17742     -735.11048      320.09852     -444.00834      1920.3708      0.9969611
    130000  -630.78022      119.22528     -750.00549      314.94181      2867.7337      1920.3708      0.9969611
    131000  -618.31354      104.47342     -722.78696      275.97375      90.90988       1920.3708      0.9969611
    132000  -643.945        107.59661     -751.54161      284.22387      152.46533      1920.3708      0.9969611
    133000  -614.57138      103.9966      -718.56798      274.71421      3048.6971      1920.3708      0.9969611
    134000  -621.5098       113.09275     -734.60256      298.74232     -601.34498      1920.3708      0.9969611
    135000  -616.75855      121.09327     -737.85182      319.87624      1663.1745      1920.3708      0.9969611
    136000  -622.8949       115.13155     -738.02645      304.12794     -202.7854       1920.3708      0.9969611
    137000  -645.73179      97.585733     -743.31752      257.77946     -504.62849      1920.3708      0.9969611
    138000  -633.40162      113.81417     -747.21578      300.64799      405.35355      1920.3708      0.9969611
    139000  -623.65081      114.04616     -737.69697      301.26081      1446.3089      1920.3708      0.9969611
    140000  -628.82256      116.55082     -745.37338      307.87705      651.35897      1920.3708      0.9969611
    141000  -594.20306      121.28571     -715.48876      320.38457     -2806.1516      1920.3708      0.9969611
    142000  -630.50057      118.80227     -749.30284      313.82441     -1811.004       1920.3708      0.9969611
    143000  -634.43718      107.80413     -742.2413       284.77206      1814.9027      1920.3708      0.9969611
    144000  -636.16774      114.89771     -751.06545      303.51025     -1088.3472      1920.3708      0.9969611
    145000  -634.42758      105.76066     -740.18823      279.37408      694.79736      1920.3708      0.9969611
    146000  -632.74865      124.8232      -757.57185      329.72911      1422.5336      1920.3708      0.9969611
    147000  -644.50488      109.88746     -754.39234      290.27532     -850.59872      1920.3708      0.9969611
    148000  -605.6246       129.4929      -735.1175       342.06443     -1843.1633      1920.3708      0.9969611
    149000  -629.87912      105.51212     -735.39123      278.71755     -108.09884      1920.3708      0.9969611
    150000  -637.4323       107.51939     -744.95169      284.01991      447.31132      1920.3708      0.9969611
    151000  -607.63841      119.95208     -727.59049      316.86171     -82.497616      1920.3708      0.9969611
    152000  -609.71294      123.81124     -733.52418      327.05594      2552           1920.3708      0.9969611
    153000  -632.67389      102.75196     -735.42585      271.42641      4333.2617      1920.3708      0.9969611
    154000  -617.65676      103.17086     -720.82762      272.53296      3854.9863      1920.3708      0.9969611
    155000  -625.4763       116.05814     -741.53444      306.57561     -1368.3121      1920.3708      0.9969611
    156000  -632.45515      115.83906     -748.29421      305.99688     -3105.6398      1920.3708      0.9969611
    157000  -613.75667      115.04173     -728.7984       303.89069      2542.2892      1920.3708      0.9969611
    158000  -646.4516       105.64809     -752.09969      279.07672      2806.9158      1920.3708      0.9969611
    159000  -672.66268      103.2065      -775.86918      272.62711      362.71723      1920.3708      0.9969611
    160000  -619.5238       108.44652     -727.97032      286.46897     -375.95549      1920.3708      0.9969611
    161000  -641.84308      116.65771     -758.50079      308.1594      -1798.1867      1920.3708      0.9969611
    162000  -636.7402       113.85031     -750.59051      300.74346     -1447.2779      1920.3708      0.9969611
    163000  -632.68714      111.01006     -743.6972       293.24075     -2182.2813      1920.3708      0.9969611
    164000  -619.69623      123.767       -743.46323      326.93907      2681.8941      1920.3708      0.9969611
    165000  -645.80334      113.31929     -759.12263      299.34073     -1559.99        1920.3708      0.9969611
    166000  -632.6038       116.55357     -749.15737      307.88431      1495.2716      1920.3708      0.9969611
    167000  -634.96631      112.8063      -747.77261      297.98564     -1675.8609      1920.3708      0.9969611
    168000  -614.1075       133.27721     -747.38471      352.06096      379.87842      1920.3708      0.9969611
    169000  -617.52933      118.9955      -736.52483      314.33483     -1307.2686      1920.3708      0.9969611
    170000  -612.72978      122.71548     -735.44527      324.16143     -718.49286      1920.3708      0.9969611
    171000  -636.00804      120.47436     -756.48239      318.24134     -3062.4036      1920.3708      0.9969611
    172000  -656.96075      105.63023     -762.59098      279.02955      3241.4357      1920.3708      0.9969611
    173000  -632.43495      113.87326     -746.3082       300.80408      4638.1646      1920.3708      0.9969611
    174000  -639.57551      117.45021     -757.02572      310.25284     -781.14951      1920.3708      0.9969611
    175000  -645.96761      109.4734      -755.44101      289.18155     -2216.308       1920.3708      0.9969611
    176000  -610.54027      123.02471     -733.56498      324.97826     -287.49329      1920.3708      0.9969611
    177000  -607.74565      102.85644     -710.60209      271.7024      -157.39486      1920.3708      0.9969611
    178000  -597.2792       118.11107     -715.39027      311.99856     -1998.8639      1920.3708      0.9969611
    179000  -627.13928      100.47565     -727.61493      265.41337     -98.131896      1920.3708      0.9969611
    180000  -614.96404      104.39736     -719.3614       275.77283     -2254.1147      1920.3708      0.9969611
    181000  -613.27229      112.00116     -725.27345      295.8588       2694.3293      1920.3708      0.9969611
    182000  -628.13467      103.04682     -731.18149      272.20531     -1618.2103      1920.3708      0.9969611
    183000  -635.23151      107.64542     -742.87693      284.35281     -252.31049      1920.3708      0.9969611
    184000  -617.73021      121.11371     -738.84392      319.93023     -234.17168      1920.3708      0.9969611
    185000  -606.03792      112.93765     -718.97557      298.33261     -1136.0257      1920.3708      0.9969611
    186000  -625.37678      114.0176      -739.39437      301.18536     -775.08673      1920.3708      0.9969611
    187000  -660.55723      104.49917     -765.0564       276.04179     -2851.3225      1920.3708      0.9969611
    188000  -649.42784      109.7142      -759.14204      289.81765      991.71214      1920.3708      0.9969611
    189000  -621.60889      121.73212     -743.34101      321.56381      427.41378      1920.3708      0.9969611
    190000  -615.09295      126.27897     -741.37192      333.57462      2666.9979      1920.3708      0.9969611
    191000  -634.30069      103.2296      -737.53028      272.68811     -2585.2583      1920.3708      0.9969611
    192000  -619.24078      114.69408     -733.93486      302.97235     -490.00022      1920.3708      0.9969611
    193000  -619.17724      127.53315     -746.7104       336.88763      1707.5953      1920.3708      0.9969611
    194000  -611.00703      116.97223     -727.97926      308.99024      1344.4039      1920.3708      0.9969611
    195000  -633.77913      111.9745      -745.75364      295.78839      1715.9214      1920.3708      0.9969611
    196000  -607.16293      106.92304     -714.08597      282.44461     -2407.096       1920.3708      0.9969611
    197000  -616.87732      118.39944     -735.27676      312.7603      -1968.8256      1920.3708      0.9969611
    198000  -612.38399      113.60652     -725.99051      300.09947      2514.4324      1920.3708      0.9969611
    199000  -631.01576      100.00261     -731.01836      264.1638      -598.8394       1920.3708      0.9969611
    200000  -655.24839      95.388353     -750.63674      251.97493      714.71589      1920.3708      0.9969611
    201000  -633.31682      105.67233     -738.98916      279.14077     -982.12678      1920.3708      0.9969611
    202000  -607.3471       125.22643     -732.57353      330.79426     -11.706303      1920.3708      0.9969611
    203000  -611.6599       115.15199     -726.81189      304.18194      3034.8071      1920.3708      0.9969611
    204000  -644.81693      106.23404     -751.05097      280.62456      479.96968      1920.3708      0.9969611
    205000  -600.194        113.81648     -714.01048      300.6541       103.95099      1920.3708      0.9969611
    206000  -642.3446       100.9043      -743.2489       266.54568     -1314.3119      1920.3708      0.9969611
    207000  -628.36804      117.52842     -745.89646      310.45944      241.01541      1920.3708      0.9969611
    208000  -658.90707      115.1484      -774.05547      304.17246      1241.4777      1920.3708      0.9969611
    209000  -620.2136       123.38459     -743.59819      325.92892     -90.32624       1920.3708      0.9969611
    210000  -625.75711      115.32324     -741.08035      304.63432     -2361.4221      1920.3708      0.9969611
    211000  -649.798        97.673336     -747.47134      258.01087     -1116.2647      1920.3708      0.9969611
    212000  -626.57521      111.07193     -737.64714      293.40419      568.24512      1920.3708      0.9969611
    213000  -608.18783      118.07055     -726.25838      311.89151      1669.3432      1920.3708      0.9969611
    214000  -609.40152      109.23598     -718.6375       288.55438     -264.97964      1920.3708      0.9969611
    215000  -648.03177      99.52161      -747.55338      262.89321     -192.31896      1920.3708      0.9969611
    216000  -619.09934      126.16662     -745.26597      333.27785      885.31156      1920.3708      0.9969611
    217000  -596.7133       122.95226     -719.66556      324.78688     -568.93184      1920.3708      0.9969611
    218000  -612.63346      113.21372     -725.84718      299.06187     -2530.6592      1920.3708      0.9969611
    219000  -604.68294      119.23069     -723.91362      314.9561       2375.0579      1920.3708      0.9969611
    220000  -621.94661      111.66915     -733.61576      294.98178      4512.7524      1920.3708      0.9969611
    221000  -632.68917      105.44414     -738.1333       278.53798      471.00166      1920.3708      0.9969611
    222000  -653.23511      115.29732     -768.53243      304.56583      3689.0735      1920.3708      0.9969611
    223000  -613.60169      120.86676     -734.46844      319.27789     -940.90988      1920.3708      0.9969611
    224000  -629.06786      119.47961     -748.54747      315.61363      214.08907      1920.3708      0.9969611
    225000  -619.75173      128.84074     -748.59247      340.34172     -1593.9422      1920.3708      0.9969611
    226000  -629.80378      109.09359     -738.89737      288.17825      1361.5811      1920.3708      0.9969611
    227000  -651.08539      112.8135      -763.89889      298.00465      324.51118      1920.3708      0.9969611
    228000  -621.95921      121.62961     -743.58882      321.29301     -1367.1439      1920.3708      0.9969611
    229000  -623.86782      118.13465     -742.00247      312.06085     -1890.1047      1920.3708      0.9969611
    230000  -657.05803      110.29195     -767.34998      291.34381      1606.1743      1920.3708      0.9969611
    231000  -632.97933      92.872506     -725.85183      245.32914      1624.8264      1920.3708      0.9969611
    232000  -653.9464       105.01609     -758.96249      277.40725      608.33083      1920.3708      0.9969611
    233000  -612.9187       124.18848     -737.10718      328.05244      874.76766      1920.3708      0.9969611
    234000  -637.63397      113.24225     -750.87622      299.13724      2703.8724      1920.3708      0.9969611
    235000  -637.47929      107.031       -744.51029      282.72978     -1672.7085      1920.3708      0.9969611
    236000  -648.03534      101.01799     -749.05333      266.84601      1513.5902      1920.3708      0.9969611
    237000  -630.44463      112.95917     -743.4038       298.38945     -699.79359      1920.3708      0.9969611
    238000  -618.28355      114.05136     -732.33491      301.27455      378.54528      1920.3708      0.9969611
    239000  -623.78384      111.54796     -735.33181      294.66166     -402.57525      1920.3708      0.9969611
    240000  -654.49264      113.32102     -767.81366      299.34532      1976.4633      1920.3708      0.9969611
    241000  -622.34552      111.78753     -734.13305      295.29449      1647.4856      1920.3708      0.9969611
    242000  -614.55782      120.40196     -734.95979      318.05011     -2467.2561      1920.3708      0.9969611
    243000  -643.93928      105.75885     -749.69813      279.36931      1992.3898      1920.3708      0.9969611
    244000  -620.28209      112.25366     -732.53574      296.52579     -102.44371      1920.3708      0.9969611
    245000  -620.91963      106.78883     -727.70846      282.09006      1672.155       1920.3708      0.9969611
    246000  -631.26173      106.60962     -737.87136      281.61669      537.45426      1920.3708      0.9969611
    247000  -614.98842      122.11303     -737.10144      322.57001     -1637.435       1920.3708      0.9969611
    248000  -635.16257      115.45759     -750.62015      304.98919      1260.9441      1920.3708      0.9969611
    249000  -613.40093      115.56345     -728.96438      305.26884      27.906695      1920.3708      0.9969611
    250000  -626.82745      108.73641     -735.56387      287.23475     -187.19662      1920.3708      0.9969611
    251000  -641.16195      115.97224     -757.13419      306.34868      4113.2031      1920.3708      0.9969611
    252000  -635.18637      116.09164     -751.27801      306.66409      232.73712      1920.3708      0.9969611
    253000  -641.0092       102.74515     -743.75435      271.40841     -766.23079      1920.3708      0.9969611
    254000  -652.08529      102.07074     -754.15603      269.62691      4000.0891      1920.3708      0.9969611
    255000  -644.50635      113.40829     -757.91464      299.57584      968.79734      1920.3708      0.9969611
    256000  -627.53616      113.72076     -741.25692      300.40126      2022.7233      1920.3708      0.9969611
    257000  -638.91575      102.17018     -741.08594      269.8896      -374.7829       1920.3708      0.9969611
    258000  -631.74871      102.5567      -734.30541      270.91062     -482.72418      1920.3708      0.9969611
    259000  -630.44057      106.79398     -737.23456      282.10369     -1663.5602      1920.3708      0.9969611
    260000  -583.34292      124.29002     -707.63294      328.32067     -324.39376      1920.3708      0.9969611
    261000  -637.38766      109.04556     -746.43322      288.05139     -459.19267      1920.3708      0.9969611
    262000  -641.95538      114.13836     -756.09374      301.50436      2527.0952      1920.3708      0.9969611
    263000  -616.64751      126.84037     -743.48788      335.05761      849.18498      1920.3708      0.9969611
    264000  -637.78595      106.34906     -744.13501      280.9284      -947.02735      1920.3708      0.9969611
    265000  -604.27975      117.16438     -721.44413      309.49781     -258.80479      1920.3708      0.9969611
    266000  -616.72724      125.86926     -742.5965       332.49236     -1708.6575      1920.3708      0.9969611
    267000  -616.23988      120.05124     -736.29112      317.12366     -1019.6127      1920.3708      0.9969611
    268000  -639.87087      91.025685     -730.89655      240.45064      1121.9152      1920.3708      0.9969611
    269000  -606.68521      114.24743     -720.93265      301.79249      562.11042      1920.3708      0.9969611
    270000  -627.26729      111.69715     -738.96444      295.05574      786.82568      1920.3708      0.9969611
    271000  -620.51876      126.68053     -747.19929      334.63536      2808.8886      1920.3708      0.9969611
    272000  -661.46634      99.522709     -760.98904      262.89611      1409.2403      1920.3708      0.9969611
    273000  -617.44334      109.96008     -727.40342      290.46714      2364.4718      1920.3708      0.9969611
    274000  -626.07679      121.48333     -747.56012      320.90662      1395.4051      1920.3708      0.9969611
    275000  -627.95672      109.4267      -737.38343      289.0582       564.09103      1920.3708      0.9969611
    276000  -654.68971      100.63005     -755.31976      265.82122      368.88533      1920.3708      0.9969611
    277000  -626.56441      104.04254     -730.60695      274.83556     -162.9868       1920.3708      0.9969611
    278000  -610.61079      119.55048     -730.16128      315.80086     -705.36572      1920.3708      0.9969611
    279000  -615.81192      110.80349     -726.61541      292.69507     -1762.9725      1920.3708      0.9969611
    280000  -642.06263      114.61935     -756.68198      302.77493      951.05101      1920.3708      0.9969611
    281000  -631.07694      106.05967     -737.13661      280.16394     -752.91704      1920.3708      0.9969611
    282000  -619.39694      117.41342     -736.81035      310.15566      1498.0044      1920.3708      0.9969611
    283000  -620.90116      117.38161     -738.28277      310.07164      20.045695      1920.3708      0.9969611
    284000  -615.07883      118.07814     -733.15696      311.91156      2019.0845      1920.3708      0.9969611
    285000  -636.63744      124.32959     -760.96704      328.42521     -3053.0754      1920.3708      0.9969611
    286000  -644.7001       108.84635     -753.54645      287.52515     -1798.9586      1920.3708      0.9969611
    287000  -600.71802      110.23374     -710.95176      291.19004      303.6095       1920.3708      0.9969611
    288000  -625.3674       110.02179     -735.38918      290.63015     -2056.8466      1920.3708      0.9969611
    289000  -616.70116      116.05932     -732.76048      306.57872      1182.4806      1920.3708      0.9969611
    290000  -611.19919      112.45684     -723.65603      297.06251     -1177.7285      1920.3708      0.9969611
    291000  -604.23975      119.29145     -723.5312       315.11662      624.73792      1920.3708      0.9969611
    292000  -638.86977      108.88006     -747.74983      287.61421     -996.62849      1920.3708      0.9969611
    293000  -627.89352      105.10229     -732.99582      277.63498     -3253.7409      1920.3708      0.9969611
    294000  -626.4273       122.48597     -748.91327      323.55516      709.7758       1920.3708      0.9969611
    295000  -630.08375      103.18421     -733.26796      272.56823     -997.11994      1920.3708      0.9969611
    296000  -645.42189      101.37021     -746.7921       267.77641      2787.3678      1920.3708      0.9969611
    297000  -609.59842      117.51501     -727.11344      310.42403      713.40609      1920.3708      0.9969611
    298000  -628.62138      120.73834     -749.35972      318.93866     -284.64422      1920.3708      0.9969611
    299000  -634.19189      117.46435     -751.65624      310.29019     -405.35201      1920.3708      0.9969611
    300000  -621.94776      109.87376     -731.82152      290.23913      5.1902137      1920.3708      0.9969611
    301000  -637.04665      120.36012     -757.40676      317.93957      698.04557      1920.3708      0.9969611
    302000  -615.05718      121.07883     -736.136        319.83809     -1317.8376      1920.3708      0.9969611
    303000  -632.02435      115.43804     -747.46239      304.93756     -221.71321      1920.3708      0.9969611
    304000  -639.36595      115.68505     -755.051        305.59006      343.65046      1920.3708      0.9969611
    305000  -623.26525      108.74357     -732.00882      287.25364     -1128.3482      1920.3708      0.9969611
    306000  -598.83757      113.66568     -712.50325      300.25574      2515.9211      1920.3708      0.9969611
    307000  -622.81548      113.87045     -736.68593      300.79666      818.10908      1920.3708      0.9969611
    308000  -609.92439      113.51729     -723.44168      299.86377     -1631.2425      1920.3708      0.9969611
    309000  -639.97208      100.21774     -740.18982      264.73209     -260.01356      1920.3708      0.9969611
    310000  -615.14688      111.76696     -726.91384      295.24016      1908.2233      1920.3708      0.9969611
    311000  -623.96417      101.85562     -725.81979      269.05866      3013.1882      1920.3708      0.9969611
    312000  -639.4597       96.20979      -735.66949      254.14481      2988.5318      1920.3708      0.9969611
    313000  -640.31787      112.15069     -752.46856      296.25379     -1291.2698      1920.3708      0.9969611
    314000  -620.98901      109.40072     -730.38973      288.98956      1792.9614      1920.3708      0.9969611
    315000  -612.80828      128.01578     -740.82406      338.16252      86.874572      1920.3708      0.9969611
    316000  -631.12159      122.56322     -753.68481      323.75921      927.59495      1920.3708      0.9969611
    317000  -633.66038      102.02311     -735.68349      269.50109     -124.96495      1920.3708      0.9969611
    318000  -621.53881      122.60926     -744.14807      323.88083     -1439.3272      1920.3708      0.9969611
    319000  -597.70824      125.03607     -722.74431      330.29142      1847.7703      1920.3708      0.9969611
    320000  -620.74939      102.11757     -722.86696      269.75062     -2634.836       1920.3708      0.9969611
    321000  -621.60744      138.27957     -759.88701      365.27503     -1496.2972      1920.3708      0.9969611
    322000  -637.12774      101.6517      -738.77944      268.51998     -1283.6982      1920.3708      0.9969611
    323000  -599.62665      127.13434     -726.76099      335.83415     -437.00152      1920.3708      0.9969611
    324000  -639.55463      115.59357     -755.1482       305.3484      -1693.6114      1920.3708      0.9969611
    325000  -638.80275      117.68362     -756.48637      310.86941      1087.2138      1920.3708      0.9969611
    326000  -647.30894      112.48998     -759.79892      297.15006     -1080.2644      1920.3708      0.9969611
    327000  -608.84979      108.33882     -717.18861      286.18448     -2524.1195      1920.3708      0.9969611
    328000  -628.98215      101.97018     -730.95233      269.36128     -2331.9083      1920.3708      0.9969611
    329000  -597.96747      113.32666     -711.29412      299.3602      -2136.1987      1920.3708      0.9969611
    330000  -622.13729      97.193846     -719.33114      256.74426     -1291.4579      1920.3708      0.9969611
    331000  -638.8384       105.24605     -744.08445      278.0147       1058.531       1920.3708      0.9969611
    332000  -612.96178      117.21303     -730.17481      309.62633     -1228.4266      1920.3708      0.9969611
    333000  -642.0224       96.021171     -738.04357      253.64656     -1802.8308      1920.3708      0.9969611
    334000  -619.35777      116.61577     -735.97354      308.04863     -3165.9523      1920.3708      0.9969611
    335000  -615.16406      104.70932     -719.87338      276.59689      740.46015      1920.3708      0.9969611
    336000  -641.20648      102.16557     -743.37205      269.87741     -1040.8771      1920.3708      0.9969611
    337000  -652.24301      110.11534     -762.35836      290.87729     -1515.7395      1920.3708      0.9969611
    338000  -631.39253      114.70784     -746.10037      303.00868     -180.81298      1920.3708      0.9969611
    339000  -611.63466      118.12826     -729.76292      312.04397     -2221.6234      1920.3708      0.9969611
    340000  -626.4757       104.45114     -730.92684      275.9149      -679.502        1920.3708      0.9969611
    341000  -611.78382      116.83101     -728.61483      308.61719      1079.8024      1920.3708      0.9969611
    342000  -635.41977      123.80231     -759.22209      327.03236      822.67612      1920.3708      0.9969611
    343000  -618.68851      119.47116     -738.15967      315.59132      703.52574      1920.3708      0.9969611
    344000  -628.41269      123.81025     -752.22294      327.05332     -309.03357      1920.3708      0.9969611
    345000  -667.78816      103.98228     -771.77044      274.67637      378.06781      1920.3708      0.9969611
    346000  -618.94356      120.70061     -739.64417      318.839        821.9888       1920.3708      0.9969611
    347000  -639.49477      103.62056     -743.11533      273.72087      1070.2729      1920.3708      0.9969611
    348000  -643.67516      94.900358     -738.57552      250.68586      2619.4571      1920.3708      0.9969611
    349000  -649.90697      108.67821     -758.58518      287.08101     -1375.3936      1920.3708      0.9969611
    350000  -613.52599      130.95316     -744.47915      345.92181      47.742412      1920.3708      0.9969611
    351000  -637.19584      100.38113     -737.57697      265.16368     -2489.3345      1920.3708      0.9969611
    352000  -593.15891      124.81198     -717.9709       329.69947     -193.91476      1920.3708      0.9969611
    353000  -614.57063      105.66712     -720.23774      279.12699      2948.7897      1920.3708      0.9969611
    354000  -632.78873      110.02474     -742.81348      290.63796      207.49533      1920.3708      0.9969611
    355000  -626.52913      107.46773     -733.99686      283.88344     -1489.5493      1920.3708      0.9969611
    356000  -639.5535       117.30101     -756.8545       309.85871      2756.3346      1920.3708      0.9969611
    357000  -642.00893      110.78019     -752.78912      292.63352      959.024        1920.3708      0.9969611
    358000  -655.15933      113.37166     -768.53099      299.47906      865.78992      1920.3708      0.9969611
    359000  -667.87953      103.69667     -771.5762       273.92192      1694.0403      1920.3708      0.9969611
    360000  -671.24153      88.998983     -760.24051      235.09696     -687.27121      1920.3708      0.9969611
    361000  -646.80613      119.48061     -766.28674      315.61629      2956.1549      1920.3708      0.9969611
    362000  -642.53478      97.112494     -739.64728      256.52937     -1738.4976      1920.3708      0.9969611
    363000  -592.03826      120.74107     -712.77934      318.94589     -592.81239      1920.3708      0.9969611
    364000  -612.06496      110.41545     -722.48041      291.67005     -2102.8145      1920.3708      0.9969611
    365000  -625.98691      111.92382     -737.91074      295.65452     -1357.4165      1920.3708      0.9969611
    366000  -623.95268      116.37671     -740.32939      307.41712     -1107.6731      1920.3708      0.9969611
    367000  -621.41971      96.795432     -718.21514      255.69182     -1358.521       1920.3708      0.9969611
    368000  -626.96527      105.55268     -732.51795      278.8247       2381.6666      1920.3708      0.9969611
    369000  -626.71641      120.3856      -747.102        318.00687     -128.56745      1920.3708      0.9969611
    370000  -632.6228       120.01214     -752.63493      317.02035      597.10325      1920.3708      0.9969611
    371000  -613.59099      129.40457     -742.99556      341.83112      1079.6785      1920.3708      0.9969611
    372000  -630.53653      109.08948     -739.62602      288.1674      -1911.2379      1920.3708      0.9969611
    373000  -635.36694      103.89004     -739.25698      274.43272      2961.9851      1920.3708      0.9969611
    374000  -645.58801      109.41191     -754.99992      289.01913      2543.7445      1920.3708      0.9969611
    375000  -610.59117      132.01329     -742.60446      348.72224      2671.4358      1920.3708      0.9969611
    376000  -627.33498      121.89767     -749.23265      322.00112     -1222.3104      1920.3708      0.9969611
    377000  -626.70994      106.87054     -733.58047      282.30591      2039.8528      1920.3708      0.9969611
    378000  -616.08713      119.28162     -735.36875      315.09064     -74.857755      1920.3708      0.9969611
    379000  -597.64261      133.5139      -731.15652      352.6862      -1874.3232      1920.3708      0.9969611
    380000  -626.14875      123.69942     -749.84817      326.76056      1360.0326      1920.3708      0.9969611
    381000  -645.85671      117.63206     -763.48877      310.73322     -966.30562      1920.3708      0.9969611
    382000  -629.69364      114.63519     -744.32884      302.81678     -986.99062      1920.3708      0.9969611
    383000  -625.48597      104.71069     -730.19666      276.60052      942.50726      1920.3708      0.9969611
    384000  -625.34971      115.96435     -741.31406      306.32785      2883.8058      1920.3708      0.9969611
    385000  -596.25571      135.23693     -731.49264      357.23769      321.10827      1920.3708      0.9969611
    386000  -635.02727      114.1559      -749.18317      301.5507       228.61837      1920.3708      0.9969611
    387000  -662.35934      110.40219     -772.76153      291.63502     -497.91132      1920.3708      0.9969611
    388000  -642.22006      124.70539     -766.92545      329.4179       1204.3319      1920.3708      0.9969611
    389000  -635.75326      104.79295     -740.5462       276.81781     -1410.3883      1920.3708      0.9969611
    390000  -629.07891      106.50191     -735.58082      281.33216     -1224.2492      1920.3708      0.9969611
    391000  -598.7523       120.12204     -718.87434      317.31067      280.08912      1920.3708      0.9969611
    392000  -624.73636      120.32547     -745.06183      317.84805     -207.91406      1920.3708      0.9969611
    393000  -640.33085      105.44297     -745.77382      278.53489      822.38276      1920.3708      0.9969611
    394000  -630.05378      98.423172     -728.47695      259.99161     -2.532196       1920.3708      0.9969611
    395000  -620.82909      120.30881     -741.1379       317.80405     -1074.1697      1920.3708      0.9969611
    396000  -595.72206      123.61407     -719.33613      326.53511     -2035.993       1920.3708      0.9969611
    397000  -640.55456      110.79912     -751.35367      292.68352      154.70433      1920.3708      0.9969611
    398000  -642.52541      122.3562      -764.88161      323.21235      89.489646      1920.3708      0.9969611
    399000  -611.84947      115.453       -727.30247      304.97709     -2651.1386      1920.3708      0.9969611
    400000  -637.99755      113.85993     -751.85748      300.76887      1139.1668      1920.3708      0.9969611
    401000  -621.66363      108.64746     -730.31109      286.99977      631.6158       1920.3708      0.9969611
    402000  -644.22375      103.49216     -747.71591      273.3817      -780.31132      1920.3708      0.9969611
    403000  -624.77504      108.16258     -732.93762      285.71894     -1033.621       1920.3708      0.9969611
    404000  -614.44406      113.15958     -727.60365      298.91885      1520.8801      1920.3708      0.9969611
    405000  -635.53511      116.62336     -752.15847      308.06865     -1617.7943      1920.3708      0.9969611
    406000  -626.64381      111.9721      -738.61591      295.78205     -1584.5003      1920.3708      0.9969611
    407000  -640.4729       112.45091     -752.92382      297.04686      3537.5998      1920.3708      0.9969611
    408000  -649.66727      115.27813     -764.94541      304.51515      2195.9887      1920.3708      0.9969611
    409000  -634.71183      105.61053     -740.32236      278.97752      3422.7517      1920.3708      0.9969611
    410000  -660.85716      107.50386     -768.36102      283.97888     -319.39055      1920.3708      0.9969611
    411000  -646.21812      106.25525     -752.47337      280.68058     -393.45329      1920.3708      0.9969611
    412000  -626.49066      119.84085     -746.33151      316.56789      693.7329       1920.3708      0.9969611
    413000  -637.68528      115.38892     -753.07421      304.80782     -1306.6686      1920.3708      0.9969611
    414000  -580.7191       131.19714     -711.91624      346.56631      2438.1755      1920.3708      0.9969611
    415000  -615.48336      118.27586     -733.75922      312.43386      2623.5273      1920.3708      0.9969611
    416000  -652.14129      108.53389     -760.67517      286.69976      357.80585      1920.3708      0.9969611
    417000  -619.52577      114.02711     -733.55288      301.21048      430.58459      1920.3708      0.9969611
    418000  -624.20451      114.10086     -738.30538      301.40532     -1740.6078      1920.3708      0.9969611
    419000  -631.7973       105.9031      -737.7004       279.75034     -1127.9453      1920.3708      0.9969611
    420000  -630.79932      116.86957     -747.66888      308.71904     -827.17993      1920.3708      0.9969611
    421000  -641.43402      113.07827     -754.51229      298.70407      702.02251      1920.3708      0.9969611
    422000  -632.14547      118.26033     -750.4058       312.39283     -1652.0471      1920.3708      0.9969611
    423000  -642.3877       115.71536     -758.10305      305.67011      1323.3835      1920.3708      0.9969611
    424000  -639.38477      114.60707     -753.99185      302.7425       3592.6323      1920.3708      0.9969611
    425000  -633.7902       106.65123     -740.44143      281.72659      1916.9803      1920.3708      0.9969611
    426000  -634.64688      111.08574     -745.73262      293.44067     -1918.0257      1920.3708      0.9969611
    427000  -644.4256       102.22848     -746.65408      270.0436       275.46186      1920.3708      0.9969611
    428000  -608.15418      103.46133     -711.61551      273.30025     -423.88723      1920.3708      0.9969611
    429000  -615.43172      115.02045     -730.45217      303.83447      2056.6011      1920.3708      0.9969611
    430000  -639.38937      98.847864     -738.23723      261.11346      1868.2415      1920.3708      0.9969611
    431000  -622.51478      122.32451     -744.83929      323.12864     -793.60875      1920.3708      0.9969611
    432000  -637.65674      116.73042     -754.38716      308.35146     -1103.2576      1920.3708      0.9969611
    433000  -633.4235       109.5873      -743.0108       289.48242     -448.66582      1920.3708      0.9969611
    434000  -625.88118      109.00247     -734.88364      287.93755     -1713.4455      1920.3708      0.9969611
    435000  -615.02743      118.13636     -733.16379      312.06536      2066.3282      1920.3708      0.9969611
    436000  -609.90905      121.14809     -731.05714      320.02104      1787.0822      1920.3708      0.9969611
    437000  -611.47851      111.34011     -722.81863      294.1126      -654.31164      1920.3708      0.9969611
    438000  -629.07569      121.00841     -750.0841       319.65208      2076.7825      1920.3708      0.9969611
    439000  -632.37404      104.10525     -736.47929      275.00121     -514.17213      1920.3708      0.9969611
    440000  -638.55309      110.93698     -749.49007      293.0477       544.24506      1920.3708      0.9969611
    441000  -623.40455      109.40102     -732.80558      288.99037     -618.37898      1920.3708      0.9969611
    442000  -625.47547      106.25343     -731.7289       280.67577     -475.19984      1920.3708      0.9969611
    443000  -619.83231      132.31967     -752.15198      349.53156     -90.599619      1920.3708      0.9969611
    444000  -641.12834      112.80723     -753.93557      297.9881      -2164.4511      1920.3708      0.9969611
    445000  -630.49314      120.02761     -750.52074      317.06122      207.22758      1920.3708      0.9969611
    446000  -610.9077       119.70104     -730.60874      316.19856     -529.01264      1920.3708      0.9969611
    447000  -636.12696      99.65394      -735.7809       263.24277      536.15317      1920.3708      0.9969611
    448000  -665.92441      95.574526     -761.49893      252.46672      4788.2248      1920.3708      0.9969611
    449000  -625.87184      108.93435     -734.8062       287.75762      1133.4264      1920.3708      0.9969611
    450000  -645.09782      115.68699     -760.78481      305.59518      58.424924      1920.3708      0.9969611
    451000  -629.28928      104.50875     -733.79803      276.06709     -2107.9673      1920.3708      0.9969611
    452000  -624.79042      124.54852     -749.33894      329.00353     -1832.095       1920.3708      0.9969611
    453000  -623.23185      113.48056     -736.71242      299.76675     -478.03252      1920.3708      0.9969611
    454000  -644.91527      110.20508     -755.12036      291.11434     -1324.8204      1920.3708      0.9969611
    455000  -619.55987      126.33843     -745.89831      333.7317       10.932586      1920.3708      0.9969611
    456000  -614.04654      117.08853     -731.13507      309.29745      2971.9418      1920.3708      0.9969611
    457000  -639.6828       103.85269     -743.53549      274.33406     -282.64148      1920.3708      0.9969611
    458000  -612.71492      104.70132     -717.41624      276.57578      421.31353      1920.3708      0.9969611
    459000  -618.00306      123.91176     -741.91482      327.32147     -216.78931      1920.3708      0.9969611
    460000  -639.78251      100.62261     -740.40512      265.80158     -1299.5533      1920.3708      0.9969611
    461000  -627.66091      106.13016     -733.79107      280.35016     -1408.2614      1920.3708      0.9969611
    462000  -625.48187      108.06255     -733.54442      285.45469     -1460.7139      1920.3708      0.9969611
    463000  -608.69248      112.36244     -721.05492      296.81314      3901.4497      1920.3708      0.9969611
    464000  -624.13443      110.77869     -734.91311      292.62956     -1712.4395      1920.3708      0.9969611
    465000  -623.93114      118.83382     -742.76496      313.90775      378.1543       1920.3708      0.9969611
    466000  -655.79428      98.2593       -754.05358      259.55873     -1878.9181      1920.3708      0.9969611
    467000  -637.79458      114.57181     -752.36639      302.64935      2678.9005      1920.3708      0.9969611
    468000  -641.64168      108.67993     -750.32161      287.08555      1086.8645      1920.3708      0.9969611
    469000  -615.67759      127.60367     -743.28126      337.07392     -1662.2032      1920.3708      0.9969611
    470000  -623.53083      122.18569     -745.71652      322.76194      2147.9053      1920.3708      0.9969611
    471000  -631.61183      114.63609     -746.24792      302.81916      637.99425      1920.3708      0.9969611
    472000  -634.85572      113.49422     -748.34995      299.80283     -845.73282      1920.3708      0.9969611
    473000  -653.69862      97.5974       -751.29602      257.81028     -544.39453      1920.3708      0.9969611
    474000  -647.72139      112.34792     -760.06931      296.7748       2466.073       1920.3708      0.9969611
    475000  -613.38971      123.5024      -736.89211      326.24013      1628.5886      1920.3708      0.9969611
    476000  -634.273        121.76495     -756.03795      321.65054      3537.2169      1920.3708      0.9969611
    477000  -615.55872      119.47003     -735.02876      315.58835      407.63262      1920.3708      0.9969611
    478000  -638.24751      110.07811     -748.32562      290.77893      960.13759      1920.3708      0.9969611
    479000  -623.15648      114.59582     -737.7523       302.71277     -487.63663      1920.3708      0.9969611
    480000  -630.87119      118.20746     -749.07865      312.25319      989.51754      1920.3708      0.9969611
    481000  -633.73449      116.058       -749.79249      306.57523      65.483297      1920.3708      0.9969611
    482000  -622.33283      121.22058     -743.55341      320.21255      1052.1491      1920.3708      0.9969611
    483000  -641.71029      101.8843      -743.59459      269.13441     -2356.3454      1920.3708      0.9969611
    484000  -615.73783      113.67868     -729.41651      300.29009     -162.77731      1920.3708      0.9969611
    485000  -624.49141      104.22755     -728.71896      275.32429     -471.1739       1920.3708      0.9969611
    486000  -620.29045      111.15105     -731.4415       293.61319      2479.7306      1920.3708      0.9969611
    487000  -607.7104       123.18051     -730.8909       325.38982      1929.0925      1920.3708      0.9969611
    488000  -645.41765      105.32501     -750.74266      278.22328     -1615.7109      1920.3708      0.9969611
    489000  -630.48236      104.0877      -734.57006      274.95485      1276.4694      1920.3708      0.9969611
    490000  -619.68979      115.02536     -734.71515      303.84744     -647.77222      1920.3708      0.9969611
    491000  -638.63614      121.12678     -759.76292      319.96475      1381.744       1920.3708      0.9969611
    492000  -647.94928      97.02202      -744.9713       256.29037     -1409.189       1920.3708      0.9969611
    493000  -626.121        116.17776     -742.29875      306.89158     -2500.6491      1920.3708      0.9969611
    494000  -621.28892      127.80666     -749.09558      337.61011      2041.6076      1920.3708      0.9969611
    495000  -660.2341       96.527503     -756.76161      254.98407     -1746.3647      1920.3708      0.9969611
    496000  -630.66207      110.57981     -741.24189      292.10422      322.70265      1920.3708      0.9969611
    497000  -622.93474      118.87824     -741.81298      314.02509      144.80219      1920.3708      0.9969611
    498000  -612.19518      108.81759     -721.01277      287.44918      470.73532      1920.3708      0.9969611
    499000  -630.31621      130.01599     -760.33219      343.44621      1166.269       1920.3708      0.9969611
    500000  -631.11895      116.2752      -747.39415      307.14899      1372.8029      1920.3708      0.9969611
    501000  -632.59123      110.72283     -743.31407      292.48202      154.28167      1920.3708      0.9969611
    502000  -621.71516      110.38838     -732.10353      291.59853      3009.6864      1920.3708      0.9969611
    503000  -644.4144       123.73094     -768.14534      326.84384      3216.0886      1920.3708      0.9969611
    504000  -623.92519      111.8923      -735.81748      295.57124     -1521.0828      1920.3708      0.9969611
    505000  -615.47679      112.79556     -728.27235      297.95726      202.79452      1920.3708      0.9969611
    506000  -629.39096      106.75455     -736.14551      281.99952     -716.59155      1920.3708      0.9969611
    507000  -623.64146      108.32275     -731.96421      286.14203     -1051.6883      1920.3708      0.9969611
    508000  -629.54794      119.11558     -748.66353      314.65205     -2195.7636      1920.3708      0.9969611
    509000  -610.94419      108.96174     -719.90594      287.82997     -38.265083      1920.3708      0.9969611
    510000  -609.54353      118.71289     -728.25642      313.5883       117.31174      1920.3708      0.9969611
    511000  -593.25175      128.39175     -721.6435       339.15568     -379.93957      1920.3708      0.9969611
    512000  -625.03509      117.25524     -742.29034      309.73782     -2145.2776      1920.3708      0.9969611
    513000  -637.61077      105.05414     -742.66491      277.50778     -253.43453      1920.3708      0.9969611
    514000  -626.22357      100.12062     -726.34419      264.47555      397.81172      1920.3708      0.9969611
    515000  -632.53511      112.10705     -744.64216      296.13853     -34.690067      1920.3708      0.9969611
    516000  -609.78888      124.0274      -733.81628      327.62696     -65.843501      1920.3708      0.9969611
    517000  -651.70643      94.237995     -745.94443      248.93618     -2072.0063      1920.3708      0.9969611
    518000  -615.1703       112.14262     -727.31292      296.23247     -290.35816      1920.3708      0.9969611
    519000  -634.5064       111.95149     -746.45789      295.72759     -2464.7882      1920.3708      0.9969611
    520000  -584.73611      121.62708     -706.36318      321.28633      2006.6754      1920.3708      0.9969611
    521000  -604.5874       124.6664      -729.2538       329.31491      2224.6453      1920.3708      0.9969611
    522000  -622.26705      109.81614     -732.08318      290.08691     -457.30955      1920.3708      0.9969611
    523000  -611.9472       125.67888     -737.62608      331.98944      1587.9402      1920.3708      0.9969611
    524000  -605.83064      119.60495     -725.43558      315.94474      421.57798      1920.3708      0.9969611
    525000  -648.06505      105.47334     -753.53839      278.6151      -622.91205      1920.3708      0.9969611
    526000  -610.84582      121.9098      -732.75562      322.03317     -1456.2521      1920.3708      0.9969611
    527000  -610.23304      121.80322     -732.03626      321.75161      1713.1003      1920.3708      0.9969611
    528000  -628.3884       115.33052     -743.71892      304.65355      1287.7243      1920.3708      0.9969611
    529000  -648.84428      104.26834     -753.11262      275.43202     -3433.8009      1920.3708      0.9969611
    530000  -628.4672       116.36132     -744.82851      307.37646      1361.8331      1920.3708      0.9969611
    531000  -640.75906      117.76749     -758.52654      311.09095      4428.3354      1920.3708      0.9969611
    532000  -617.81745      129.25129     -747.06874      341.42622     -554.13838      1920.3708      0.9969611
    533000  -636.36331      112.7989      -749.16222      297.9661       2123.1873      1920.3708      0.9969611
    534000  -628.54589      121.19376     -749.73965      320.14168      292.19781      1920.3708      0.9969611
    535000  -623.69283      124.52888     -748.22171      328.95164     -786.34254      1920.3708      0.9969611
    536000  -613.19673      123.89644     -737.09318      327.28102      493.79297      1920.3708      0.9969611
    537000  -644.13651      115.31447     -759.45097      304.61113      1973.1971      1920.3708      0.9969611
    538000  -608.54543      112.39203     -720.93746      296.89131      2826.9564      1920.3708      0.9969611
    539000  -618.8552       107.3994      -726.2546       283.70293     -1244.65        1920.3708      0.9969611
    540000  -637.97851      113.0845      -751.063        298.72052     -1361.5763      1920.3708      0.9969611
    541000  -644.13751      113.64312     -757.78063      300.19616     -52.61589       1920.3708      0.9969611
    542000  -634.88304      115.683       -750.56604      305.58463      320.92657      1920.3708      0.9969611
    543000  -625.71362      115.2114      -740.92503      304.33889      423.34939      1920.3708      0.9969611
    544000  -639.57658      103.92929     -743.50588      274.53641     -1566.5085      1920.3708      0.9969611
    545000  -653.31796      96.350311     -749.66827      254.516       -748.07826      1920.3708      0.9969611
    546000  -606.25124      124.27301     -730.52425      328.27574      2864.1635      1920.3708      0.9969611
    547000  -616.59607      118.20383     -734.7999       312.24359     -4608.2891      1920.3708      0.9969611
    548000  -651.01302      104.74519     -755.75821      276.69166      219.97237      1920.3708      0.9969611
    549000  -634.42013      107.68482     -742.10495      284.45689      454.45957      1920.3708      0.9969611
    550000  -636.33014      103.96257     -740.29272      274.62432     -1740.0383      1920.3708      0.9969611
    551000  -640.82179      118.84558     -759.66738      313.93882      168.79952      1920.3708      0.9969611
    552000  -636.19955      105.87991     -742.07946      279.68909     -922.33311      1920.3708      0.9969611
    553000  -611.24666      118.93266     -730.17932      314.16885      3947.3409      1920.3708      0.9969611
    554000  -624.19903      118.64256     -742.84159      313.40253      740.46701      1920.3708      0.9969611
    555000  -640.4293       100.21616     -740.64547      264.72792      584.19127      1920.3708      0.9969611
    556000  -640.9205       104.18443     -745.10494      275.21038     -1544.133       1920.3708      0.9969611
    557000  -637.55272      116.35032     -753.90304      307.3474      -59.747437      1920.3708      0.9969611
    558000  -628.6666       123.42472     -752.09133      326.03493      86.714433      1920.3708      0.9969611
    559000  -669.54269      96.529194     -766.07188      254.98854      3771.9086      1920.3708      0.9969611
    560000  -634.23427      113.75808     -747.99235      300.49982      501.17894      1920.3708      0.9969611
    561000  -616.75692      109.44678     -726.2037       289.11122      1454.2512      1920.3708      0.9969611
    562000  -644.50211      111.31244     -755.81455      294.03951      1063.2987      1920.3708      0.9969611
    563000  -636.15219      115.68575     -751.83794      305.5919       1196.5436      1920.3708      0.9969611
    564000  -617.24975      123.77291     -741.02266      326.95469     -3048.4032      1920.3708      0.9969611
    565000  -627.70679      118.98256     -746.68935      314.30066     -2002.0233      1920.3708      0.9969611
    566000  -622.2985       114.15815     -736.45665      301.55663      212.77405      1920.3708      0.9969611
    567000  -641.06695      115.58783     -756.65478      305.33323      675.06641      1920.3708      0.9969611
    568000  -587.904        129.07636     -716.98036      340.96412      1085.0776      1920.3708      0.9969611
    569000  -640.18226      107.43313     -747.61539      283.79203      103.86399      1920.3708      0.9969611
    570000  -654.78772      97.557712     -752.34543      257.70544      1389.2053      1920.3708      0.9969611
    571000  -646.34946      115.58793     -761.93739      305.33351     -2497.5662      1920.3708      0.9969611
    572000  -624.97076      113.63836     -738.60912      300.18358     -274.78393      1920.3708      0.9969611
    573000  -626.75907      112.89587     -739.65494      298.22225      551.19913      1920.3708      0.9969611
    574000  -628.84189      108.40925     -737.25114      286.37053     -133.75636      1920.3708      0.9969611
    575000  -602.94221      128.95446     -731.89668      340.64213     -681.52213      1920.3708      0.9969611
    576000  -645.5863       114.51265     -760.09894      302.49307      95.650957      1920.3708      0.9969611
    577000  -610.65956      122.6246      -733.28416      323.92135      929.96168      1920.3708      0.9969611
    578000  -629.81925      101.87543     -731.69468      269.11099      3192.435       1920.3708      0.9969611
    579000  -618.77891      108.72832     -727.50724      287.21338      2433.9876      1920.3708      0.9969611
    580000  -617.57276      111.40015     -728.97291      294.27121      2009.4875      1920.3708      0.9969611
    581000  -619.59071      111.94819     -731.5389       295.71888      188.14637      1920.3708      0.9969611
    582000  -661.95535      109.3291      -771.28444      288.80036     -808.34351      1920.3708      0.9969611
    583000  -648.81598      104.4153      -753.23128      275.82024     -569.44429      1920.3708      0.9969611
    584000  -622.87613      128.51752     -751.39365      339.48792      1934.8808      1920.3708      0.9969611
    585000  -624.76381      114.72757     -739.49138      303.06081      2874.0433      1920.3708      0.9969611
    586000  -622.28459      105.26902     -727.55361      278.0754      -262.11732      1920.3708      0.9969611
    587000  -615.97395      118.69096     -734.66491      313.53037      1915.8846      1920.3708      0.9969611
    588000  -614.2769       120.31315     -734.59005      317.81549      460.04024      1920.3708      0.9969611
    589000  -618.13705      108.72418     -726.86123      287.20244      3169.6303      1920.3708      0.9969611
    590000  -631.53739      105.08461     -736.622        277.58825     -392.28351      1920.3708      0.9969611
    591000  -642.38885      104.64366     -747.03251      276.42345      3430.8344      1920.3708      0.9969611
    592000  -616.37704      118.17696     -734.554        312.1726      -299.59633      1920.3708      0.9969611
    593000  -634.50122      105.85556     -740.35678      279.62477      1299.0947      1920.3708      0.9969611
    594000  -608.02847      128.90953     -736.938        340.52344      449.97228      1920.3708      0.9969611
    595000  -622.26395      107.7146      -729.97855      284.53556      479.37961      1920.3708      0.9969611
    596000  -629.57684      113.26892     -742.84575      299.20767      2071.5209      1920.3708      0.9969611
    597000  -641.77308      103.52438     -745.29746      273.46681      2168.7631      1920.3708      0.9969611
    598000  -617.97118      115.71362     -733.6848       305.66553     -1707.9899      1920.3708      0.9969611
    599000  -621.05468      110.49323     -731.54791      291.8755       1242.4008      1920.3708      0.9969611
    600000  -634.03772      105.40201     -739.43973      278.42669     -205.45346      1920.3708      0.9969611
    601000  -625.41382      123.90561     -749.31942      327.30522     -1064.9419      1920.3708      0.9969611
    602000  -645.62776      108.78051     -754.40827      287.35123     -2101.6554      1920.3708      0.9969611
    603000  -643.48611      114.56789     -758.05399      302.63899     -1222.6217      1920.3708      0.9969611
    604000  -609.72695      116.32386     -726.05081      307.27751     -659.73993      1920.3708      0.9969611
    605000  -634.28043      122.69073     -756.97115      324.09603      1779.5506      1920.3708      0.9969611
    606000  -610.76467      115.86477     -726.62943      306.06479     -2098.5532      1920.3708      0.9969611
    607000  -626.6342       120.9757      -747.6099       319.56567      631.88423      1920.3708      0.9969611
    608000  -636.35366      106.35319     -742.70685      280.9393      -2761.773       1920.3708      0.9969611
    609000  -620.13719      109.25706     -729.39425      288.61006      547.32625      1920.3708      0.9969611
    610000  -620.39887      113.11108     -733.50995      298.79074      2406.4415      1920.3708      0.9969611
    611000  -623.97751      117.49379     -741.4713       310.36797     -1750.1321      1920.3708      0.9969611
    612000  -634.38716      97.613234     -732.00039      257.8521      -1669.9637      1920.3708      0.9969611
    613000  -624.06182      110.45292     -734.51474      291.76902     -214.83603      1920.3708      0.9969611
    614000  -633.48638      109.60129     -743.08767      289.51938      536.50207      1920.3708      0.9969611
    615000  -610.80971      122.89375     -733.70346      324.63233      1611.4645      1920.3708      0.9969611
    616000  -639.52625      112.17623     -751.70248      296.32127      1537.422       1920.3708      0.9969611
    617000  -647.57657      110.45855     -758.03512      291.78389     -1273.6044      1920.3708      0.9969611
    618000  -625.08733      110.98082     -736.06815      293.16352      274.58557      1920.3708      0.9969611
    619000  -633.39414      103.73999     -737.13412      274.03634     -2657.2477      1920.3708      0.9969611
    620000  -607.07661      126.49198     -733.56859      334.13731      773.74892      1920.3708      0.9969611
    621000  -642.8821       113.92465     -756.80675      300.93983      395.30676      1920.3708      0.9969611
    622000  -655.16941      108.48327     -763.65268      286.56604      1092.1935      1920.3708      0.9969611
    623000  -630.71816      115.02686     -745.74502      303.8514       2102.7925      1920.3708      0.9969611
    624000  -653.24818      100.11127     -753.35944      264.45083      616.57648      1920.3708      0.9969611
    625000  -660.08741      88.722078     -748.80949      234.3655       438.56859      1920.3708      0.9969611
    626000  -615.8484       119.88063     -735.72904      316.67298     -1693.9298      1920.3708      0.9969611
    627000  -633.75238      113.63626     -747.38864      300.17803     -595.67347      1920.3708      0.9969611
    628000  -632.27358      118.31303     -750.58661      312.53204      234.37877      1920.3708      0.9969611
    629000  -657.98793      100.78567     -758.77359      266.23231      833.53565      1920.3708      0.9969611
    630000  -627.14652      113.82807     -740.97459      300.68472     -1199.4324      1920.3708      0.9969611
    631000  -626.34312      123.58548     -749.9286       326.45958     -252.76019      1920.3708      0.9969611
    632000  -649.36206      110.55507     -759.91713      292.03885     -2237.6889      1920.3708      0.9969611
    633000  -644.51893      104.62786     -749.14679      276.38172      22.047052      1920.3708      0.9969611
    634000  -627.25802      123.83141     -751.08943      327.10924      1319.0831      1920.3708      0.9969611
    635000  -650.18742      110.00873     -760.19615      290.59566     -222.64676      1920.3708      0.9969611
    636000  -624.57693      108.93192     -733.50885      287.7512       4842.5603      1920.3708      0.9969611
    637000  -606.45507      123.29331     -729.74838      325.6878       935.42209      1920.3708      0.9969611
    638000  -632.21502      108.29913     -740.51414      286.07963      1124.2239      1920.3708      0.9969611
    639000  -645.80028      108.97939     -754.77967      287.8766      -914.26173      1920.3708      0.9969611
    640000  -631.24679      110.45025     -741.69704      291.76196      1992.157       1920.3708      0.9969611
    641000  -650.49627      98.893777     -749.39005      261.23475     -592.01791      1920.3708      0.9969611
    642000  -635.6586       110.1663      -745.8249       291.0119       765.4216       1920.3708      0.9969611
    643000  -622.81136      106.57919     -729.39056      281.5363       1340.9691      1920.3708      0.9969611
    644000  -645.46272      104.32856     -749.79128      275.59111     -1981.7779      1920.3708      0.9969611
    645000  -669.18341      93.926979     -763.11039      248.11461     -1110.3853      1920.3708      0.9969611
    646000  -633.13525      117.01115     -750.1464       309.09305      1174.8962      1920.3708      0.9969611
    647000  -634.56163      114.56766     -749.12929      302.63838      720.77859      1920.3708      0.9969611
    648000  -626.24142      106.41201     -732.65344      281.09469     -593.34097      1920.3708      0.9969611
    649000  -609.89806      118.65413     -728.55219      313.43308     -35.137304      1920.3708      0.9969611
    650000  -619.54847      112.87867     -732.42715      298.17682      1518.9214      1920.3708      0.9969611
    651000  -631.68769      101.81681     -733.5045       268.95615     -1150.3322      1920.3708      0.9969611
    652000  -619.9317       111.15536     -731.08706      293.62457     -65.891064      1920.3708      0.9969611
    653000  -658.99599      101.3006      -760.29658      267.59252     -2015.5308      1920.3708      0.9969611
    654000  -629.33054      121.68512     -751.01566      321.43964     -3387.1987      1920.3708      0.9969611
    655000  -622.20136      110.48324     -732.6846       291.84911     -986.32226      1920.3708      0.9969611
[...]
   2841000  -625.83425      118.9238      -744.75805      314.14544     -404.3614       1920.3708      0.9969611
   2842000  -635.40586      110.97589     -746.38176      293.1505      -761.29119      1920.3708      0.9969611
   2843000  -621.34174      111.19368     -732.53542      293.7258      -404.1596       1920.3708      0.9969611
   2844000  -635.86858      90.181434     -726.05001      238.22049     -68.585736      1920.3708      0.9969611
   2845000  -604.41629      134.83903     -739.25533      356.18662     -241.06591      1920.3708      0.9969611
   2846000  -625.79039      122.09176     -747.88215      322.51381     -299.4076       1920.3708      0.9969611
   2847000  -637.37303      120.21782     -757.59084      317.56367     -2015.746       1920.3708      0.9969611
   2848000  -622.13827      108.64274     -730.78101      286.9873       3452.2214      1920.3708      0.9969611
   2849000  -628.17997      118.80658     -746.98655      313.83579      1396.8979      1920.3708      0.9969611
   2850000  -642.77692      111.55653     -754.33345      294.68427     -1439.3939      1920.3708      0.9969611
   2851000  -594.82872      138.58254     -733.41126      366.07535      2767.6201      1920.3708      0.9969611
   2852000  -615.04436      106.22862     -721.27298      280.61024     -1376.6461      1920.3708      0.9969611
   2853000  -637.39519      109.9377      -747.33289      290.40803     -0.30325251     1920.3708      0.9969611
   2854000  -623.40568      116.67745     -740.08313      308.21156     -2025.1999      1920.3708      0.9969611
   2855000  -615.24191      111.02769     -726.2696       293.28732      87.114396      1920.3708      0.9969611
   2856000  -629.84461      116.26706     -746.11167      307.12748      525.16935      1920.3708      0.9969611
   2857000  -627.17456      117.14603     -744.32059      309.44935      683.76115      1920.3708      0.9969611
   2858000  -625.84284      102.98209     -728.82493      272.03431      2404.5563      1920.3708      0.9969611
   2859000  -636.23854      103.54296     -739.7815       273.51589      622.14535      1920.3708      0.9969611
   2860000  -620.99231      106.68867     -727.68098      281.82549      1964.3153      1920.3708      0.9969611
   2861000  -634.8054       120.75133     -755.55673      318.97298      3015.4097      1920.3708      0.9969611
   2862000  -630.48534      108.65258     -739.13793      287.01331      1061.1383      1920.3708      0.9969611
   2863000  -641.08882      102.50839     -743.59721      270.78301     -2730.9861      1920.3708      0.9969611
   2864000  -626.89967      101.64475     -728.54442      268.50163     -88.251939      1920.3708      0.9969611
   2865000  -648.66167      111.51517     -760.17684      294.57502     -2265.4435      1920.3708      0.9969611
   2866000  -635.16396      118.54006     -753.70402      313.13176      2119.4561      1920.3708      0.9969611
   2867000  -608.60067      117.82702     -726.42769      311.24821      4668.6929      1920.3708      0.9969611
   2868000  -643.8085       106.09989     -749.90839      280.2702      -496.07278      1920.3708      0.9969611
   2869000  -672.50854      101.46511     -773.97365      268.02711     -102.57235      1920.3708      0.9969611
   2870000  -629.03556      111.11301     -740.14857      293.51268     -166.06965      1920.3708      0.9969611
   2871000  -617.92549      111.09685     -729.02234      293.47002     -1419.1656      1920.3708      0.9969611
   2872000  -648.74806      100.85209     -749.60015      266.40777      880.75377      1920.3708      0.9969611
   2873000  -626.44128      112.87342     -739.3147       298.16294     -1494.9355      1920.3708      0.9969611
   2874000  -621.34466      115.167       -736.51166      304.22159     -416.96529      1920.3708      0.9969611
   2875000  -638.5139       104.2455      -742.7594       275.37168      1212.4857      1920.3708      0.9969611
   2876000  -613.5163       110.47048     -723.98678      291.81541      1041.439       1920.3708      0.9969611
   2877000  -652.00157      99.271248     -751.27282      262.23186     -922.94117      1920.3708      0.9969611
   2878000  -630.48739      117.2588      -747.7462       309.74723      3695.085       1920.3708      0.9969611
   2879000  -662.24126      100.93832     -763.17957      266.63555     -89.685102      1920.3708      0.9969611
   2880000  -623.06018      129.15369     -752.21386      341.16839      2195.1992      1920.3708      0.9969611
   2881000  -619.34302      112.6537      -731.99672      297.58253      917.55398      1920.3708      0.9969611
   2882000  -614.80944      123.96175     -738.77118      327.45352     -1859.1365      1920.3708      0.9969611
   2883000  -609.48291      126.47534     -735.95825      334.09334     -1867.8016      1920.3708      0.9969611
   2884000  -631.86797      103.64905     -735.51702      273.79612     -1990.3028      1920.3708      0.9969611
   2885000  -614.61241      126.78607     -741.39848      334.91417      1645.8825      1920.3708      0.9969611
   2886000  -626.85828      114.75291     -741.61119      303.12775     -1055.6353      1920.3708      0.9969611
   2887000  -632.81151      115.5959      -748.4074       305.35455     -1803.3504      1920.3708      0.9969611
   2888000  -656.16671      116.61132     -772.77802      308.03685      140.64881      1920.3708      0.9969611
   2889000  -620.14459      110.75992     -730.90451      292.57998     -1476.8306      1920.3708      0.9969611
   2890000  -598.70966      122.6722      -721.38186      324.04709     -257.20348      1920.3708      0.9969611
   2891000  -617.99709      109.31897     -727.31605      288.7736       826.51325      1920.3708      0.9969611
   2892000  -618.11686      132.26571     -750.38256      349.38901      87.892593      1920.3708      0.9969611
   2893000  -632.78037      113.86989     -746.65026      300.79517     -262.26275      1920.3708      0.9969611
   2894000  -615.80937      122.2003      -738.00967      322.80054      715.4606       1920.3708      0.9969611
   2895000  -633.82735      108.96875     -742.7961       287.84848      3833.8652      1920.3708      0.9969611
   2896000  -613.73187      109.52922     -723.26109      289.32901     -2349.5789      1920.3708      0.9969611
   2897000  -612.31327      116.59796     -728.91123      308.00156      921.51245      1920.3708      0.9969611
   2898000  -596.10538      108.96049     -705.06587      287.82666      1487.0265      1920.3708      0.9969611
   2899000  -630.46         98.364484     -728.82448      259.83658      2316.0519      1920.3708      0.9969611
   2900000  -636.92856      116.66291     -753.59147      308.17314      470.02803      1920.3708      0.9969611
   2901000  -628.97046      100.9369      -729.90735      266.63179     -1041.4416      1920.3708      0.9969611
   2902000  -610.44067      121.30671     -731.74737      320.44005     -104.76466      1920.3708      0.9969611
   2903000  -600.80487      108.10652     -708.91139      285.57085     -665.38969      1920.3708      0.9969611
   2904000  -601.08376      117.47634     -718.5601       310.32187      156.97175      1920.3708      0.9969611
   2905000  -627.37323      98.506901     -725.88013      260.21279     -325.9878       1920.3708      0.9969611
   2906000  -647.53885      104.25929     -751.79814      275.40811      1123.8233      1920.3708      0.9969611
   2907000  -641.73916      107.54359     -749.28275      284.08383      300.90547      1920.3708      0.9969611
   2908000  -606.58621      131.31415     -737.90036      346.87541      1129.0315      1920.3708      0.9969611
   2909000  -625.90843      121.43727     -747.3457       320.78495      4117.0522      1920.3708      0.9969611
   2910000  -664.66476      86.068896     -750.73365      227.35694      379.23413      1920.3708      0.9969611
   2911000  -646.63971      102.99604     -749.63575      272.07115      506.05796      1920.3708      0.9969611
   2912000  -625.64722      115.04403     -740.69125      303.89675      1275.4693      1920.3708      0.9969611
   2913000  -651.16092      104.33804     -755.49896      275.61615     -1462.164       1920.3708      0.9969611
   2914000  -643.44901      114.78276     -758.23177      303.20659      629.54611      1920.3708      0.9969611
   2915000  -644.29468      104.97029     -749.26497      277.28627     -710.64473      1920.3708      0.9969611
   2916000  -621.72572      111.38166     -733.10738      294.22235      382.4141       1920.3708      0.9969611
   2917000  -627.25312      120.29033     -747.54345      317.75523     -362.81562      1920.3708      0.9969611
   2918000  -605.06733      114.19609     -719.26342      301.65686     -219.96841      1920.3708      0.9969611
   2919000  -633.24944      102.13272     -735.38216      269.79065      4419.3419      1920.3708      0.9969611
   2920000  -637.55628      107.99491     -745.55119      285.27602     -1947.5024      1920.3708      0.9969611
   2921000  -627.23753      106.00482     -733.24235      280.01905     -1576.5844      1920.3708      0.9969611
   2922000  -634.86871      116.66192     -751.53063      308.17052     -509.29004      1920.3708      0.9969611
   2923000  -622.95325      114.59845     -737.5517       302.71973     -1126.9573      1920.3708      0.9969611
   2924000  -627.78849      105.49578     -733.28427      278.67439      132.21147      1920.3708      0.9969611
   2925000  -622.48394      115.12394     -737.60788      304.10783      732.32967      1920.3708      0.9969611
   2926000  -605.08739      115.48933     -720.57672      305.07305      822.82544      1920.3708      0.9969611
   2927000  -617.17355      117.93404     -735.10759      311.53091     -28.882519      1920.3708      0.9969611
   2928000  -637.0157       107.4334      -744.44909      283.79274     -1324.0621      1920.3708      0.9969611
   2929000  -604.11816      113.28311     -717.40127      299.24515     -275.33139      1920.3708      0.9969611
   2930000  -644.41904      102.49134     -746.91037      270.73795     -1278.3796      1920.3708      0.9969611
   2931000  -624.91184      112.90786     -737.8197       298.25391     -839.4106       1920.3708      0.9969611
   2932000  -614.21783      101.15908     -715.37691      267.21871     -99.212588      1920.3708      0.9969611
   2933000  -624.08125      121.64124     -745.72249      321.32374     -317.12989      1920.3708      0.9969611
   2934000  -645.39248      103.39726     -748.78974      273.13102      57.772696      1920.3708      0.9969611
   2935000  -636.75518      120.41339     -757.16857      318.08029      1453.7626      1920.3708      0.9969611
   2936000  -605.62371      111.34568     -716.96939      294.1273      -874.61137      1920.3708      0.9969611
   2937000  -624.75994      108.54116     -733.3011       286.71898      220.18665      1920.3708      0.9969611
   2938000  -609.92069      119.37123     -729.29192      315.32736      2060.0933      1920.3708      0.9969611
   2939000  -623.59142      122.78415     -746.37557      324.34283      933.33518      1920.3708      0.9969611
   2940000  -656.24549      104.04797     -760.29345      274.84989     -1295.3927      1920.3708      0.9969611
   2941000  -615.13599      110.6006      -725.73659      292.15913     -1114.1363      1920.3708      0.9969611
   2942000  -634.36975      115.90062     -750.27038      306.15951     -217.1867       1920.3708      0.9969611
   2943000  -593.65595      130.86582     -724.52177      345.69112      712.22882      1920.3708      0.9969611
   2944000  -636.00015      101.66489     -737.66504      268.55483      187.42106      1920.3708      0.9969611
   2945000  -606.77767      135.0899      -741.86757      356.84931     -1432.6538      1920.3708      0.9969611
   2946000  -624.96508      112.361       -737.32609      296.80935     -1368.6279      1920.3708      0.9969611
   2947000  -626.62318      116.25714     -742.88032      307.10126      150.36083      1920.3708      0.9969611
   2948000  -636.32876      95.960969     -732.28972      253.48753      3149.6564      1920.3708      0.9969611
   2949000  -620.06506      116.88539     -736.95044      308.76082      53.704985      1920.3708      0.9969611
   2950000  -650.18941      101.9486      -752.13801      269.30426      273.1428       1920.3708      0.9969611
   2951000  -612.25995      118.66868     -730.92863      313.47151      582.03929      1920.3708      0.9969611
   2952000  -610.06906      133.62447     -743.69354      352.97828      199.65444      1920.3708      0.9969611
   2953000  -641.06642      106.12904     -747.19546      280.34719     -499.18006      1920.3708      0.9969611
   2954000  -633.71867      111.71728     -745.43595      295.10893     -1409.2068      1920.3708      0.9969611
   2955000  -632.02289      110.8386      -742.86149      292.78783     -655.01385      1920.3708      0.9969611
   2956000  -639.00148      112.96669     -751.96817      298.40932      53.297394      1920.3708      0.9969611
   2957000  -621.98236      112.08416     -734.06652      296.07805      3404.1583      1920.3708      0.9969611
   2958000  -603.81436      112.88786     -716.70222      298.20109     -224.33864      1920.3708      0.9969611
   2959000  -610.87728      110.73097     -721.60825      292.50352      1443.2942      1920.3708      0.9969611
   2960000  -623.85481      114.36489     -738.21969      302.10275     -105.58738      1920.3708      0.9969611
   2961000  -633.93526      113.19378     -747.12904      299.0092       1540.2119      1920.3708      0.9969611
   2962000  -636.6951       109.69172     -746.38681      289.75825      102.89672      1920.3708      0.9969611
   2963000  -652.05787      101.51987     -753.57774      268.17175     -241.43863      1920.3708      0.9969611
   2964000  -634.44405      106.91803     -741.36207      282.43136      649.33516      1920.3708      0.9969611
   2965000  -637.21431      114.20943     -751.42374      301.69211     -354.98841      1920.3708      0.9969611
   2966000  -639.1447       121.18888     -760.33358      320.12881      1850.7008      1920.3708      0.9969611
   2967000  -629.6648       116.40596     -746.07076      307.49438      1346.2267      1920.3708      0.9969611
   2968000  -605.46551      121.82798     -727.29349      321.81704     -1299.0249      1920.3708      0.9969611
   2969000  -621.68212      121.53932     -743.22144      321.05452     -415.20682      1920.3708      0.9969611
   2970000  -650.25653      107.17232     -757.42885      283.10309      594.66637      1920.3708      0.9969611
   2971000  -644.03368      98.750507     -742.78419      260.85629     -295.72115      1920.3708      0.9969611
   2972000  -626.05733      125.55981     -751.61714      331.67492      720.66681      1920.3708      0.9969611
   2973000  -644.76643      109.36118     -754.12761      288.88511     -368.8026       1920.3708      0.9969611
   2974000  -642.20904      109.30322     -751.51227      288.73202     -2404.2063      1920.3708      0.9969611
   2975000  -605.73079      121.20071     -726.9315       320.16006      2148.692       1920.3708      0.9969611
   2976000  -617.01312      119.56018     -736.5733       315.82647      957.07291      1920.3708      0.9969611
   2977000  -598.46675      124.37336     -722.84011      328.54083      2774.567       1920.3708      0.9969611
   2978000  -618.01543      110.66677     -728.68219      292.33391      772.21238      1920.3708      0.9969611
   2979000  -626.12447      108.11023     -734.2347       285.58065      282.90723      1920.3708      0.9969611
   2980000  -636.80649      114.14591     -750.9524       301.52431      2273.7925      1920.3708      0.9969611
   2981000  -654.09478      97.264817     -751.3596       256.93174      1393.0558      1920.3708      0.9969611
   2982000  -650.21586      111.48629     -761.70214      294.49873     -671.27756      1920.3708      0.9969611
   2983000  -637.00938      112.32933     -749.33871      296.7257      -982.40251      1920.3708      0.9969611
   2984000  -645.91526      99.821645     -745.73691      263.68577      876.41202      1920.3708      0.9969611
   2985000  -662.57816      103.36839     -765.94655      273.05475     -778.72682      1920.3708      0.9969611
   2986000  -655.57317      104.96786     -760.54103      277.27986     -2259.1194      1920.3708      0.9969611
   2987000  -618.06665      122.99707     -741.06372      324.90525      685.6472       1920.3708      0.9969611
   2988000  -647.62063      96.814222     -744.43486      255.74146     -548.24184      1920.3708      0.9969611
   2989000  -612.60761      115.37389     -727.9815       304.7681      -579.87941      1920.3708      0.9969611
   2990000  -623.7351       112.90371     -736.63881      298.24295      640.89044      1920.3708      0.9969611
   2991000  -609.09849      118.69657     -727.79506      313.54518      268.58783      1920.3708      0.9969611
   2992000  -616.41157      117.90668     -734.31825      311.45864     -1638.378       1920.3708      0.9969611
   2993000  -638.9174       120.04068     -758.95808      317.09574      2038.6164      1920.3708      0.9969611
   2994000  -632.28216      100.0009      -732.28305      264.15929     -1494.9047      1920.3708      0.9969611
   2995000  -631.58876      117.14506     -748.73383      309.44678      115.45038      1920.3708      0.9969611
   2996000  -608.91732      124.30573     -733.22305      328.36218      1854.0833      1920.3708      0.9969611
   2997000  -645.07657      104.13153     -749.20811      275.07064      572.37512      1920.3708      0.9969611
   2998000  -641.69058      116.67191     -758.3625       308.19692     -523.71594      1920.3708      0.9969611
   2999000  -635.82755      102.13425     -737.9618       269.79467     -226.56209      1920.3708      0.9969611
   3000000  -635.28644      106.47419     -741.76064      281.25894     -2031.1629      1920.3708      0.9969611
Loop time of 1874.05 on 1 procs for 2000000 steps with 192 atoms

Performance: 92.207 ns/day, 0.260 hours/ns, 1067.205 timesteps/s
99.7% CPU use with 1 MPI tasks x 1 OpenMP threads

MPI task timing breakdown:
Section |  min time  |  avg time  |  max time  |%varavg| %total
---------------------------------------------------------------
Pair    | 1516.3     | 1516.3     | 1516.3     |   0.0 | 80.91
Bond    | 0.11132    | 0.11132    | 0.11132    |   0.0 |  0.01
Kspace  | 229.23     | 229.23     | 229.23     |   0.0 | 12.23
Neigh   | 74.707     | 74.707     | 74.707     |   0.0 |  3.99
Comm    | 27.097     | 27.097     | 27.097     |   0.0 |  1.45
Output  | 0.6188     | 0.6188     | 0.6188     |   0.0 |  0.03
Modify  | 21.527     | 21.527     | 21.527     |   0.0 |  1.15
Other   |            | 4.511      |            |       |  0.24

Nlocal:            192 ave         192 max         192 min
Histogram: 1 0 0 0 0 0 0 0 0 0
Nghost:           4644 ave        4644 max        4644 min
Histogram: 1 0 0 0 0 0 0 0 0 0
Neighs:          69041 ave       69041 max       69041 min
Histogram: 1 0 0 0 0 0 0 0 0 0

Total # of neighbors = 69041
Ave neighs/atom = 359.58854
Ave special neighs/atom = 2
Neighbor list builds = 57617
Dangerous builds = 0

# write data file
write_data data.after_prod.lmp
System init for write_data ...
PPPM initialization ...
  using 12-bit tables for long-range coulomb (src/kspace.cpp:342)
  G vector (1/distance) = 0.31260513
  grid = 12 12 12
  stencil order = 5
  estimated absolute RMS force accuracy = 0.0021455329
  estimated relative force accuracy = 6.4612085e-06
  using double precision FFTW3
  3d grid and FFT values/proc = 6859 1728
Generated 1 of 1 mixed pair_coeff terms from geometric mixing rule

# clean up
undump dPROD
unfix fTHERMO
unfix fMOM
unfix fSHAKE
Total wall time: 0:46:18
