LAMMPS (23 Jun 2022 - Update 4)
  using 1 OpenMP thread(s) per MPI task
# created by fftool

# System settings
units real
boundary p p p  # Periodic boundary conditions

# definition of atoms, bonds, angles
atom_style full
bond_style harmonic
angle_style harmonic

# definition of pair potentials
special_bonds lj/coul 0.0 0.0 0.5
pair_style lj/cut/coul/long 10.0 10.0
pair_modify mix geometric tail yes
kspace_style pppm 1.0e-5

# read data file
read_data data.lmp
Reading data file ...
  orthogonal box = (0 0 0) to (15.660478 15.660478 15.660478)
  1 by 1 by 2 MPI processor grid
  reading atoms ...
  384 atoms
  scanning bonds ...
  1 = max bonds/atom
  scanning angles ...
  1 = max angles/atom
  reading bonds ...
  256 bonds
  reading angles ...
  128 angles
Finding 1-2 1-3 1-4 neighbors ...
  special bond factors lj:    0        0        0.5
  special bond factors coul:  0        0        0.5
     2 = max # of 1-2 neighbors
     1 = max # of 1-3 neighbors
     1 = max # of 1-4 neighbors
     2 = max # of special neighbors
  special bonds CPU = 0.000 seconds
  read_data CPU = 0.006 seconds

# definition of LJ parameters
pair_coeff    1    1     0.000000     0.000000  # Hw Hw
pair_coeff    2    2     0.162985     3.178841  # Ow-Ow

############################################

# remove energy hotspots
minimize 1.0e-4 1.0e-6 100 1000
WARNING: Using 'neigh_modify every 1 delay 0 check yes' setting during minimization (src/min.cpp:187)
PPPM initialization ...
  using 12-bit tables for long-range coulomb (src/kspace.cpp:342)
  G vector (1/distance) = 0.31203871
  grid = 15 15 15
  stencil order = 5
  estimated absolute RMS force accuracy = 0.0022228175
  estimated relative force accuracy = 6.6939488e-06
  using double precision FFTW3
  3d grid and FFT values/proc = 6776 1800
Generated 1 of 1 mixed pair_coeff terms from geometric mixing rule
Neighbor list info ...
  update every 1 steps, delay 0 steps, check yes
  max neighbors/atom: 2000, page size: 100000
  master list distance cutoff = 12
  ghost atom cutoff = 12
  binsize = 6, bins = 3 3 3
  1 neighbor lists, perpetual/occasional/extra = 1 0 0
  (1) pair lj/cut/coul/long, perpetual
      attributes: half, newton on
      pair build: half/bin/newton
      stencil: half/bin/3d
      bin: standard
Per MPI rank memory allocation (min/avg/max) = 8.677 | 8.677 | 8.677 Mbytes
   Step          Temp          E_pair         E_mol          TotEng         Press
         0   0              45553.993      8.6795487e-07  45553.993      3286707.6
       100   0             -1891.2754      152.42041     -1738.8549     -8411.9868
Loop time of 0.237599 on 2 procs for 100 steps with 384 atoms

99.4% CPU use with 2 MPI tasks x 1 OpenMP threads

Minimization stats:
  Stopping criterion = max iterations
  Energy initial, next-to-last, final =
      45553.9933553442  -1738.01113556241  -1738.85494992166
  Force two-norm initial, final = 225286.18 30.18801
  Force max component initial, final = 117017.06 4.7537487
  Final line search alpha, max atom move = 0.0040336969 0.019175181
  Iterations, force evaluations = 100 170

MPI task timing breakdown:
Section |  min time  |  avg time  |  max time  |%varavg| %total
---------------------------------------------------------------
Pair    | 0.1768     | 0.17871    | 0.18063    |   0.5 | 75.22
Bond    | 0.00068287 | 0.00068575 | 0.00068863 |   0.0 |  0.29
Kspace  | 0.036408   | 0.038319   | 0.040231   |   1.0 | 16.13
Neigh   | 0.0058721  | 0.0058725  | 0.0058729  |   0.0 |  2.47
Comm    | 0.012452   | 0.01246    | 0.012467   |   0.0 |  5.24
Output  | 1.6456e-05 | 1.9481e-05 | 2.2506e-05 |   0.0 |  0.01
Modify  | 0          | 0          | 0          |   0.0 |  0.00
Other   |            | 0.001529   |            |       |  0.64

Nlocal:            192 ave         196 max         188 min
Histogram: 1 0 0 0 0 0 0 0 0 1
Nghost:           4785 ave        4789 max        4781 min
Histogram: 1 0 0 0 0 0 0 0 0 1
Neighs:          69266 ave       71381 max       67151 min
Histogram: 1 0 0 0 0 0 0 0 0 1

Total # of neighbors = 138532
Ave neighs/atom = 360.76042
Ave special neighs/atom = 2
Neighbor list builds = 4
Dangerous builds = 0
reset_timestep 0

# constrain water bonds and angles
fix fSHAKE all shake 0.0001 20 0 b 1 a 1
       0 = # of size 2 clusters
       0 = # of size 3 clusters
       0 = # of size 4 clusters
     128 = # of frozen angles
  find clusters CPU = 0.000 seconds

# remove Center of Mass movement every 100 steps
fix fMOM all momentum 100 linear 1 1 1

# define the neighbor list
neighbor 2.0 bin

# IMPORTANT: timestep and temperature and pressure
timestep 1.0
variable vTK equal 298.15
variable vPBAR equal 1.0

# randomize velocities
velocity all create ${vTK} 89375
velocity all create 298.15 89375

# thermostat (solving the ODE)
fix fTHERMO all nvt temp ${vTK} ${vTK} 100
fix fTHERMO all nvt temp 298.15 ${vTK} 100
fix fTHERMO all nvt temp 298.15 298.15 100

# print settings
thermo 1000
thermo_style custom step etotal ke pe temp press vol density
# trajectory output
dump dEQUI all custom 1000 equi.lammpstrj id element xu yu zu
dump_modify dEQUI element H O sort id

# equilibration
# 1 ns
run 1000000
PPPM initialization ...
  using 12-bit tables for long-range coulomb (src/kspace.cpp:342)
  G vector (1/distance) = 0.31203871
  grid = 15 15 15
  stencil order = 5
  estimated absolute RMS force accuracy = 0.0022228175
  estimated relative force accuracy = 6.6939488e-06
  using double precision FFTW3
  3d grid and FFT values/proc = 6776 1800
Generated 1 of 1 mixed pair_coeff terms from geometric mixing rule
Per MPI rank memory allocation (min/avg/max) = 9.715 | 9.715 | 9.715 Mbytes
   Step         TotEng         KinEng         PotEng          Temp          Press          Volume        Density
         0  -1664.6496      226.62577     -1891.2754      298.15        -9658.5712      3840.7412      0.99696119
      1000  -1261.6152      221.27354     -1482.8888      291.10858      1630.7894      3840.7412      0.99696119
      2000  -1267.0149      235.18351     -1502.1984      309.40861     -1457.6072      3840.7412      0.99696119
      3000  -1262.6403      225.76669     -1488.407       297.01979     -576.06218      3840.7412      0.99696119
      4000  -1262.4838      224.71136     -1487.1951      295.63138      681.71573      3840.7412      0.99696119
      5000  -1232.5041      254.83385     -1487.3379      335.26069     -913.60795      3840.7412      0.99696119
      6000  -1282.2768      213.37757     -1495.6543      280.7206       1105.6205      3840.7412      0.99696119
      7000  -1264.1614      235.37077     -1499.5322      309.65497     -1911.7293      3840.7412      0.99696119
      8000  -1244.4401      219.79428     -1464.2344      289.16245      1989.4969      3840.7412      0.99696119
      9000  -1252.7582      221.93431     -1474.6925      291.9779      -162.63584      3840.7412      0.99696119
     10000  -1257.3839      237.00573     -1494.3896      311.80593      366.81208      3840.7412      0.99696119
     11000  -1276.8016      234.54067     -1511.3423      308.56288     -91.820652      3840.7412      0.99696119
     12000  -1251.3051      238.79055     -1490.0956      314.15405      972.55253      3840.7412      0.99696119
     13000  -1244.9048      224.05916     -1468.964       294.77335      1691.2809      3840.7412      0.99696119
     14000  -1275.6054      225.84215     -1501.4475      297.11907     -1887.1715      3840.7412      0.99696119
     15000  -1270.1172      229.83787     -1499.9551      302.37585      1189.2028      3840.7412      0.99696119
     16000  -1240.8875      225.4407      -1466.3282      296.59091      156.83437      3840.7412      0.99696119
     17000  -1285.0281      210.20168     -1495.2298      276.54239      765.19136      3840.7412      0.99696119
     18000  -1239.5957      232.62806     -1472.2238      306.04664     -922.77762      3840.7412      0.99696119
     19000  -1275.2577      225.08716     -1500.3449      296.12579      8.1563823      3840.7412      0.99696119
     20000  -1266.5673      205.08867     -1471.656       269.81568     -455.45358      3840.7412      0.99696119
     21000  -1231.0787      241.96948     -1473.0482      318.33626     -636.38321      3840.7412      0.99696119
     22000  -1253.5735      229.53453     -1483.1081      301.97678     -1282.3351      3840.7412      0.99696119
     23000  -1290.3046      220.0444      -1510.349       289.49151     -255.13387      3840.7412      0.99696119
     24000  -1290.097       216.12282     -1506.2198      284.33227      915.898        3840.7412      0.99696119
     25000  -1269.2965      227.85261     -1497.1492      299.76403      1028.4347      3840.7412      0.99696119
     26000  -1297.1832      227.49394     -1524.6771      299.29216      18.77896       3840.7412      0.99696119
     27000  -1267.3446      219.24223     -1486.5868      288.43617      942.70779      3840.7412      0.99696119
     28000  -1235.8424      226.47545     -1462.3178      297.95223     -31.437417      3840.7412      0.99696119
     29000  -1230.8518      239.67063     -1470.5224      315.31187      1769.0755      3840.7412      0.99696119
     30000  -1266.5877      222.44258     -1489.0302      292.64657     -1105.9859      3840.7412      0.99696119
     31000  -1309.7876      214.45333     -1524.241       282.13587      557.40753      3840.7412      0.99696119
     32000  -1238.3336      241.1993      -1479.5329      317.32301      623.35392      3840.7412      0.99696119
     33000  -1265.523       219.51881     -1485.0418      288.80005      163.98132      3840.7412      0.99696119
     34000  -1302.4453      232.10581     -1534.5511      305.35956      2127.3365      3840.7412      0.99696119
     35000  -1280.6281      226.00897     -1506.6371      297.33853     -1291.0446      3840.7412      0.99696119
     36000  -1281.1602      220.58431     -1501.7445      290.20182     -1136.9128      3840.7412      0.99696119
     37000  -1282.968       226.94927     -1509.9173      298.5756       460.14653      3840.7412      0.99696119
     38000  -1264.8218      232.23693     -1497.0588      305.53206     -953.89318      3840.7412      0.99696119
     39000  -1258.688       234.54924     -1493.2372      308.57416      2684.656       3840.7412      0.99696119
     40000  -1253.0059      226.88247     -1479.8884      298.48772     -85.457791      3840.7412      0.99696119
     41000  -1245.1454      231.17721     -1476.3226      304.1379       1139.3789      3840.7412      0.99696119
     42000  -1233.347       232.9333      -1466.2803      306.44822      1230.192       3840.7412      0.99696119
     43000  -1262.4861      213.55857     -1476.0447      280.95872     -1136.1252      3840.7412      0.99696119
     44000  -1255.6648      241.15793     -1496.8228      317.26858     -33.751791      3840.7412      0.99696119
     45000  -1254.4673      219.68236     -1474.1497      289.01522      1036.6893      3840.7412      0.99696119
     46000  -1220.6821      228.02643     -1448.7086      299.99272      240.62706      3840.7412      0.99696119
     47000  -1259.3353      224.79554     -1484.1308      295.74214     -976.85591      3840.7412      0.99696119
     48000  -1281.3544      231.84842     -1513.2028      305.02094     -127.04459      3840.7412      0.99696119
     49000  -1295.0427      220.31442     -1515.3571      289.84676     -1052.3249      3840.7412      0.99696119
     50000  -1277.0271      219.2603      -1496.2874      288.45995      2942.2957      3840.7412      0.99696119
     51000  -1267.7837      226.11909     -1493.9028      297.4834      -292.08544      3840.7412      0.99696119
     52000  -1231.3142      246.45534     -1477.7695      324.23788      104.88122      3840.7412      0.99696119
     53000  -1269.0933      222.31212     -1491.4055      292.47494     -354.80306      3840.7412      0.99696119
     54000  -1262.1022      241.92418     -1504.0264      318.27667      974.24975      3840.7412      0.99696119
     55000  -1268.4908      230.32582     -1498.8166      303.01781     -1489.947       3840.7412      0.99696119
     56000  -1263.9333      237.04754     -1500.9809      311.86093     -937.88096      3840.7412      0.99696119
     57000  -1248.4987      241.50235     -1490.001       317.7217       1458.1043      3840.7412      0.99696119
     58000  -1246.5608      228.94076     -1475.5016      301.19561      53.135655      3840.7412      0.99696119
     59000  -1227.6565      242.15897     -1469.8155      318.58556      910.5228       3840.7412      0.99696119
     60000  -1261.605       231.96507     -1493.5701      305.17441      797.37265      3840.7412      0.99696119
     61000  -1266.4562      220.02229     -1486.4785      289.46243      2446.0092      3840.7412      0.99696119
     62000  -1243.5636      227.52524     -1471.0888      299.33335      659.07496      3840.7412      0.99696119
     63000  -1237.5533      229.05636     -1466.6096      301.34769     -1125.3428      3840.7412      0.99696119
     64000  -1284.6761      225.33899     -1510.0151      296.45711     -379.73391      3840.7412      0.99696119
     65000  -1265.1002      215.16497     -1480.2651      283.07211     -270.33096      3840.7412      0.99696119
     66000  -1289.8668      195.1519      -1485.0188      256.74282     -2232.8827      3840.7412      0.99696119
     67000  -1246.8503      244.53335     -1491.3837      321.70929      845.82572      3840.7412      0.99696119
     68000  -1254.3834      219.09904     -1473.4825      288.24779      1717.9979      3840.7412      0.99696119
     69000  -1279.6504      218.42277     -1498.0731      287.35809     -1675.0562      3840.7412      0.99696119
     70000  -1243.3864      233.47826     -1476.8646      307.16516     -956.13478      3840.7412      0.99696119
     71000  -1292.5729      222.14332     -1514.7162      292.25287     -1600.0034      3840.7412      0.99696119
     72000  -1282.7018      201.78671     -1484.4885      265.4716       891.97558      3840.7412      0.99696119
     73000  -1249.131       216.65879     -1465.7898      285.03738      1140.8383      3840.7412      0.99696119
     74000  -1271.1212      232.55249     -1503.6737      305.94722      1378.0059      3840.7412      0.99696119
     75000  -1284.4512      208.0953      -1492.5465      273.77122     -1091.4043      3840.7412      0.99696119
     76000  -1246.597       230.4429      -1477.0399      303.17184      1886.3498      3840.7412      0.99696119
     77000  -1262.9881      223.60496     -1486.5931      294.17581      898.69051      3840.7412      0.99696119
     78000  -1277.6531      234.59795     -1512.251       308.63824      1142.3004      3840.7412      0.99696119
     79000  -1299.525       214.32509     -1513.8501      281.96716      160.30345      3840.7412      0.99696119
     80000  -1294.9772      206.04765     -1501.0249      271.07732      347.68627      3840.7412      0.99696119
     81000  -1262.5415      231.13118     -1493.6726      304.07733      139.78029      3840.7412      0.99696119
     82000  -1250.9158      233.73923     -1484.6551      307.5085      -559.73957      3840.7412      0.99696119
     83000  -1265.7153      219.98342     -1485.6987      289.41129      1142.126       3840.7412      0.99696119
     84000  -1252.3935      226.95051     -1479.344       298.57722      469.87121      3840.7412      0.99696119
     85000  -1238.5062      227.93214     -1466.4384      299.86867      325.42475      3840.7412      0.99696119
     86000  -1268.834       221.43052     -1490.2645      291.31511     -192.63079      3840.7412      0.99696119
     87000  -1227.3859      241.61667     -1469.0026      317.8721       1819.3144      3840.7412      0.99696119
     88000  -1269.7531      234.43633     -1504.1895      308.4256       169.49731      3840.7412      0.99696119
     89000  -1302.1516      231.78789     -1533.9395      304.9413      -2310.8769      3840.7412      0.99696119
     90000  -1242.9255      259.90005     -1502.8255      341.92581     -1472.5008      3840.7412      0.99696119
     91000  -1254.1339      244.35185     -1498.4858      321.47051     -351.84756      3840.7412      0.99696119
     92000  -1297.1388      218.30821     -1515.447       287.20737     -1332.4975      3840.7412      0.99696119
     93000  -1265.3688      233.43845     -1498.8073      307.1128      -790.1649       3840.7412      0.99696119
     94000  -1266.0774      217.65936     -1483.7368      286.35375      973.79127      3840.7412      0.99696119
     95000  -1277.038       229.57689     -1506.6149      302.03251      100.27573      3840.7412      0.99696119
     96000  -1281.1515      240.56847     -1521.72        316.49308     -292.15233      3840.7412      0.99696119
     97000  -1258.7834      232.09051     -1490.8739      305.33944     -1892.9957      3840.7412      0.99696119
     98000  -1302.8242      217.76634     -1520.5906      286.49449     -94.107029      3840.7412      0.99696119
     99000  -1269.7922      232.35024     -1502.1424      305.68114      1214.4386      3840.7412      0.99696119
    100000  -1268.6346      226.89406     -1495.5286      298.50296     -322.8824       3840.7412      0.99696119
    101000  -1245.9795      231.39129     -1477.3708      304.41954     -1107.7368      3840.7412      0.99696119
    102000  -1260.5705      223.11153     -1483.6821      293.52664     -1.4348275      3840.7412      0.99696119
    103000  -1264.9207      220.85064     -1485.7713      290.55221      1226.6703      3840.7412      0.99696119
    104000  -1242.8593      227.62013     -1470.4794      299.45818      43.304379      3840.7412      0.99696119
    105000  -1254.7243      222.57676     -1477.301       292.8231      -2182.8984      3840.7412      0.99696119
    106000  -1279.5112      222.37954     -1501.8907      292.56364      535.55521      3840.7412      0.99696119
    107000  -1271.4487      228.43797     -1499.8867      300.53413      218.64167      3840.7412      0.99696119
    108000  -1278.3936      221.61568     -1500.0093      291.5587      -327.63073      3840.7412      0.99696119
    109000  -1292.7773      244.32213     -1537.0995      321.43142      2185.3032      3840.7412      0.99696119
    110000  -1297.4073      214.33527     -1511.7425      281.98056     -494.23642      3840.7412      0.99696119
    111000  -1264.6239      228.80353     -1493.4275      301.01507      543.21814      3840.7412      0.99696119
    112000  -1240.8061      240.99392     -1481.8         317.0528      -314.36017      3840.7412      0.99696119
    113000  -1257.5115      217.54697     -1475.0585      286.20588     -291.87822      3840.7412      0.99696119
    114000  -1258.8947      234.93269     -1493.8274      309.07863      1556.0139      3840.7412      0.99696119
    115000  -1282.2993      207.95675     -1490.2561      273.58894     -260.16356      3840.7412      0.99696119
    116000  -1267.131       230.32277     -1497.4538      303.01378     -50.09352       3840.7412      0.99696119
    117000  -1307.7153      182.9925      -1490.7078      240.74584     -1605.1408      3840.7412      0.99696119
    118000  -1263.4607      221.4457      -1484.9064      291.33507      2591.42        3840.7412      0.99696119
    119000  -1242.793       225.84728     -1468.6403      297.12581      2173.3628      3840.7412      0.99696119
    120000  -1249.4429      218.52568     -1467.9686      287.49347     -2134.8664      3840.7412      0.99696119
    121000  -1269.2656      217.72351     -1486.9891      286.43813     -1463.1793      3840.7412      0.99696119
    122000  -1265.3661      254.25455     -1519.6206      334.49856     -36.732949      3840.7412      0.99696119
    123000  -1253.9706      226.51799     -1480.4885      298.0082       1512.344       3840.7412      0.99696119
    124000  -1264.2858      224.74022     -1489.0261      295.66936      1105.2669      3840.7412      0.99696119
    125000  -1246.4177      237.29663     -1483.7143      312.18863      1249.9079      3840.7412      0.99696119
    126000  -1253.3872      233.88528     -1487.2725      307.70064     -1041.9177      3840.7412      0.99696119
    127000  -1263.453       221.8422      -1485.2952      291.85671     -2048.0682      3840.7412      0.99696119
    128000  -1261.4924      235.87874     -1497.3712      310.32325     -1755.1988      3840.7412      0.99696119
    129000  -1250.576       226.4988      -1477.0748      297.98295      262.30965      3840.7412      0.99696119
    130000  -1238.1824      247.13564     -1485.318       325.13289      1397.284       3840.7412      0.99696119
    131000  -1274.8823      218.90544     -1493.7877      287.99309     -307.49853      3840.7412      0.99696119
    132000  -1266.3528      234.33384     -1500.6866      308.29078     -1397.7975      3840.7412      0.99696119
    133000  -1269.5268      247.09116     -1516.6179      325.07437     -1413.0189      3840.7412      0.99696119
    134000  -1297.4674      222.0697      -1519.5371      292.15601     -1076.5711      3840.7412      0.99696119
    135000  -1268.9634      210.69424     -1479.6576      277.1904       1561.0744      3840.7412      0.99696119
    136000  -1269.7472      239.40983     -1509.157       314.96877     -641.15655      3840.7412      0.99696119
    137000  -1216.2476      249.80403     -1466.0517      328.64343      1804.8036      3840.7412      0.99696119
    138000  -1248.4063      227.12406     -1475.5304      298.80555      2014.184       3840.7412      0.99696119
    139000  -1277.1714      234.0553      -1511.2267      307.92433      783.5127       3840.7412      0.99696119
    140000  -1277.5318      216.62389     -1494.1557      284.99148      483.75037      3840.7412      0.99696119
    141000  -1258.8168      238.49199     -1497.3088      313.76125      803.38713      3840.7412      0.99696119
    142000  -1285.3471      212.4558      -1497.8029      279.50791      4134.9261      3840.7412      0.99696119
    143000  -1284.8306      214.23265     -1499.0633      281.84555      848.7853       3840.7412      0.99696119
    144000  -1296.8081      216.87018     -1513.6783      285.3155       637.78277      3840.7412      0.99696119
    145000  -1285.2931      218.18478     -1503.4778      287.04499     -1196.8311      3840.7412      0.99696119
    146000  -1273.3108      228.07384     -1501.3847      300.05509      1237.9177      3840.7412      0.99696119
    147000  -1228.4264      225.5439      -1453.9703      296.72668      76.361588      3840.7412      0.99696119
    148000  -1257.9992      212.47081     -1470.4701      279.52766     -1640.6603      3840.7412      0.99696119
    149000  -1246.0112      239.88512     -1485.8963      315.59406      116.18009      3840.7412      0.99696119
    150000  -1254.7145      222.34379     -1477.0582      292.5166       1574.6218      3840.7412      0.99696119
    151000  -1293.2896      201.84973     -1495.1393      265.55452      63.40395       3840.7412      0.99696119
    152000  -1263.3877      240.39166     -1503.7793      316.26047      766.01228      3840.7412      0.99696119
    153000  -1276.0495      221.60633     -1497.6558      291.54639     -376.39556      3840.7412      0.99696119
    154000  -1287.9953      232.97441     -1520.9697      306.50231      1885.1855      3840.7412      0.99696119
    155000  -1262.031       244.84532     -1506.8763      322.11972      929.70433      3840.7412      0.99696119
    156000  -1274.6333      234.86937     -1509.5027      308.99532      672.0798       3840.7412      0.99696119
    157000  -1225.1228      248.87645     -1473.9993      327.4231       24.923552      3840.7412      0.99696119
    158000  -1256.3042      215.78956     -1472.0937      283.89383      1183.869       3840.7412      0.99696119
    159000  -1260.1281      204.21939     -1464.3475      268.67206      589.54156      3840.7412      0.99696119
    160000  -1246.2835      235.11764     -1481.4011      309.32195      28.785679      3840.7412      0.99696119
    161000  -1268.6342      202.5964      -1471.2306      266.53684     -501.8495       3840.7412      0.99696119
    162000  -1286.8513      206.6605      -1493.5118      271.88359      1773.0651      3840.7412      0.99696119
    163000  -1235.9124      228.48237     -1464.3948      300.59255      284.17307      3840.7412      0.99696119
    164000  -1269.8491      214.09464     -1483.9437      281.66398     -142.40894      3840.7412      0.99696119
    165000  -1203.7409      248.17195     -1451.9128      326.49625      284.42328      3840.7412      0.99696119
    166000  -1281.8576      214.01932     -1495.8769      281.56489     -764.29695      3840.7412      0.99696119
    167000  -1257.9634      233.88388     -1491.8473      307.6988       660.70156      3840.7412      0.99696119
    168000  -1270.323       226.67517     -1496.9982      298.21499     -1041.4246      3840.7412      0.99696119
    169000  -1249.0504      250.31382     -1499.3642      329.31412      586.1251       3840.7412      0.99696119
    170000  -1270.5791      236.13053     -1506.7097      310.65451     -385.03627      3840.7412      0.99696119
    171000  -1254.0596      210.93466     -1464.9943      277.5067       587.80037      3840.7412      0.99696119
    172000  -1261.921       226.71839     -1488.6394      298.27184     -593.56865      3840.7412      0.99696119
    173000  -1253.6193      237.4007      -1491.02        312.32554      1544.4857      3840.7412      0.99696119
    174000  -1301.0717      212.62149     -1513.6932      279.7259       1410.8795      3840.7412      0.99696119
    175000  -1232.4283      240.32735     -1472.7556      316.17587      1292.7682      3840.7412      0.99696119
    176000  -1289.8164      203.33278     -1493.1491      267.50562     -492.06789      3840.7412      0.99696119
    177000  -1238.3773      255.01783     -1493.3952      335.50274      555.54873      3840.7412      0.99696119
    178000  -1258.0585      232.85391     -1490.9124      306.34377      220.22241      3840.7412      0.99696119
    179000  -1260.9452      227.16288     -1488.1081      298.85662     -825.65543      3840.7412      0.99696119
    180000  -1227.7349      249.19041     -1476.9253      327.83615     -230.69975      3840.7412      0.99696119
    181000  -1236.6574      240.58805     -1477.2454      316.51885     -490.08368      3840.7412      0.99696119
    182000  -1259.9221      216.20244     -1476.1246      284.43702      741.87955      3840.7412      0.99696119
    183000  -1238.108       242.21403     -1480.322       318.65799      784.7493       3840.7412      0.99696119
    184000  -1238.2818      234.14885     -1472.4306      308.0474       2059.7614      3840.7412      0.99696119
    185000  -1289.2116      212.25822     -1501.4698      279.24797      934.87855      3840.7412      0.99696119
    186000  -1268.6177      241.83961     -1510.4573      318.1654       332.30461      3840.7412      0.99696119
    187000  -1240.3305      243.67189     -1484.0024      320.57596     -1176.4978      3840.7412      0.99696119
    188000  -1259.9489      222.85652     -1482.8055      293.19115      1192.4281      3840.7412      0.99696119
    189000  -1261.8507      217.77011     -1479.6209      286.49944      1411.2653      3840.7412      0.99696119
    190000  -1280.3684      229.3571      -1509.7255      301.74335     -250.25226      3840.7412      0.99696119
    191000  -1281.6635      233.36928     -1515.0328      307.0218       12.353491      3840.7412      0.99696119
    192000  -1234.6909      242.9056      -1477.5965      319.56782      288.62298      3840.7412      0.99696119
    193000  -1237.3903      226.10561     -1463.496       297.46568      1402.7239      3840.7412      0.99696119
    194000  -1213.3277      230.66362     -1443.9913      303.46221     -1740.6186      3840.7412      0.99696119
    195000  -1266.9086      220.59434     -1487.5029      290.21501     -882.62022      3840.7412      0.99696119
    196000  -1240.2583      243.06723     -1483.3256      319.78046      185.78092      3840.7412      0.99696119
    197000  -1256.0097      224.9103      -1480.92        295.89312      1869.2734      3840.7412      0.99696119
    198000  -1265.9045      220.6951      -1486.5996      290.34758      461.1338       3840.7412      0.99696119
    199000  -1250.4624      241.78454     -1492.247       318.09295     -1176.8152      3840.7412      0.99696119
    200000  -1225.7749      239.94395     -1465.7188      315.67147     -1444.2181      3840.7412      0.99696119
    201000  -1240.0072      228.07681     -1468.084       300.05899      619.83557      3840.7412      0.99696119
    202000  -1251.9153      231.73394     -1483.6492      304.87033      1179.8105      3840.7412      0.99696119
    203000  -1247.5992      249.48474     -1497.0839      328.22337      933.53388      3840.7412      0.99696119
    204000  -1266.1535      224.90614     -1491.0596      295.88764     -1356.8774      3840.7412      0.99696119
    205000  -1277.2669      220.63239     -1497.8993      290.26508     -839.15493      3840.7412      0.99696119
    206000  -1248.8116      225.65219     -1474.4637      296.86915      283.79105      3840.7412      0.99696119
    207000  -1228.9911      237.88974     -1466.8808      312.96893      1137.6404      3840.7412      0.99696119
    208000  -1239.9944      238.95813     -1478.9526      314.37452      1986.9915      3840.7412      0.99696119
    209000  -1265.9978      225.83427     -1491.832       297.10869      881.59754      3840.7412      0.99696119
    210000  -1260.6855      228.5353      -1489.2208      300.66219     -44.480598      3840.7412      0.99696119
    211000  -1239.1203      249.13132     -1488.2516      327.75841      1876.062       3840.7412      0.99696119
    212000  -1296.7408      216.91503     -1513.6558      285.3745       330.94057      3840.7412      0.99696119
    213000  -1270.0828      242.78227     -1512.865       319.40557      1337.696       3840.7412      0.99696119
    214000  -1289.6652      195.22671     -1484.8919      256.84124      22.315252      3840.7412      0.99696119
    215000  -1264.9688      223.33971     -1488.3085      293.82684      1153.8224      3840.7412      0.99696119
    216000  -1233.3326      226.32982     -1459.6624      297.76065      76.118713      3840.7412      0.99696119
    217000  -1280.9698      206.6671      -1487.6369      271.89227     -1101.9063      3840.7412      0.99696119
    218000  -1254.368       221.40584     -1475.7739      291.28263     -211.86915      3840.7412      0.99696119
    219000  -1271.5898      211.5161      -1483.1059      278.27164      1977.6773      3840.7412      0.99696119
    220000  -1251.1349      223.88774     -1475.0226      294.54783      115.8443       3840.7412      0.99696119
    221000  -1288.9487      231.69064     -1520.6393      304.81337      1654.0938      3840.7412      0.99696119
    222000  -1258.651       212.44058     -1471.0916      279.4879       1231.0236      3840.7412      0.99696119
    223000  -1301.7879      215.8199      -1517.6078      283.93373     -2806.5298      3840.7412      0.99696119
    224000  -1233.6672      234.25317     -1467.9204      308.18464     -2047.7177      3840.7412      0.99696119
    225000  -1265.6377      230.84252     -1496.4802      303.69758     -524.40904      3840.7412      0.99696119
    226000  -1273.6237      229.21196     -1502.8357      301.55241     -1009.4954      3840.7412      0.99696119
    227000  -1290.9392      221.35574     -1512.2949      291.21673      783.72683      3840.7412      0.99696119
    228000  -1249.7075      244.64375     -1494.3513      321.85454     -161.13757      3840.7412      0.99696119
    229000  -1247.4519      227.74022     -1475.1921      299.61618      803.73651      3840.7412      0.99696119
    230000  -1236.4261      233.23988     -1469.666       306.85156     -311.63437      3840.7412      0.99696119
    231000  -1231.7903      226.23296     -1458.0232      297.63321     -1232.2604      3840.7412      0.99696119
    232000  -1275.4146      220.00691     -1495.4215      289.44219     -381.11242      3840.7412      0.99696119
    233000  -1312.1495      223.42642     -1535.5759      293.94091     -594.28492      3840.7412      0.99696119
    234000  -1294.4299      213.07473     -1507.5046      280.32218     -701.11865      3840.7412      0.99696119
    235000  -1275.8581      226.88294     -1502.741       298.48833      186.55906      3840.7412      0.99696119
    236000  -1292.9211      213.30987     -1506.231       280.63154      360.30075      3840.7412      0.99696119
    237000  -1252.4503      235.99214     -1488.4424      310.47244     -1166.0136      3840.7412      0.99696119
    238000  -1265.8621      225.40293     -1491.265       296.54122      119.3495       3840.7412      0.99696119
    239000  -1296.0704      227.15263     -1523.223       298.84314     -1777.9603      3840.7412      0.99696119
    240000  -1281.4356      215.40188     -1496.8374      283.38379      1204.6035      3840.7412      0.99696119
    241000  -1258.2979      223.45621     -1481.7541      293.98011      540.28988      3840.7412      0.99696119
    242000  -1290.371       218.82473     -1509.1957      287.88692     -1362.589       3840.7412      0.99696119
    243000  -1238.1516      239.77111     -1477.9227      315.44407      517.03771      3840.7412      0.99696119
    244000  -1270.6692      219.90968     -1490.5789      289.31428     -316.52901      3840.7412      0.99696119
    245000  -1246.8794      223.32678     -1470.2062      293.80983     -654.50589      3840.7412      0.99696119
    246000  -1260.4804      216.83006     -1477.3105      285.26272     -589.3138       3840.7412      0.99696119
    247000  -1246.723       236.27365     -1482.9966      310.8428      -1620.1461      3840.7412      0.99696119
    248000  -1237.8338      215.25464     -1453.0884      283.19008     -871.71148      3840.7412      0.99696119
    249000  -1252.0721      226.53956     -1478.6117      298.03659     -154.27874      3840.7412      0.99696119
    250000  -1235.0089      236.98957     -1471.9985      311.78467      2138.1331      3840.7412      0.99696119
    251000  -1257.7727      228.67725     -1486.4499      300.84894     -194.26277      3840.7412      0.99696119
    252000  -1225.5689      232.08825     -1457.6572      305.33646     -378.95414      3840.7412      0.99696119
    253000  -1272.4035      220.61576     -1493.0193      290.2432      -695.05899      3840.7412      0.99696119
    254000  -1235.6742      231.11844     -1466.7926      304.06057     -1922.1325      3840.7412      0.99696119
    255000  -1303.1843      220.77565     -1523.96        290.45355     -25.638402      3840.7412      0.99696119
    256000  -1245.6947      236.83502     -1482.5297      311.58134      155.44397      3840.7412      0.99696119
    257000  -1266.5996      222.38868     -1488.9883      292.57566     -77.568772      3840.7412      0.99696119
    258000  -1246.06        224.68936     -1470.7493      295.60244     -971.39151      3840.7412      0.99696119
    259000  -1269.6984      214.98403     -1484.6824      282.83407      11.395941      3840.7412      0.99696119
    260000  -1241.5083      233.19719     -1474.7055      306.79539      20.508658      3840.7412      0.99696119
    261000  -1253.6267      218.06156     -1471.6882      286.88288      767.02519      3840.7412      0.99696119
    262000  -1259.9508      217.59046     -1477.5413      286.26309      1672.293       3840.7412      0.99696119
    263000  -1276.9772      233.41077     -1510.388       307.07637     -1737.5646      3840.7412      0.99696119
    264000  -1280.3891      214.67241     -1495.0615      282.4241      -2066.3715      3840.7412      0.99696119
    265000  -1271.8439      228.84607     -1500.69        301.07103     -1117.5312      3840.7412      0.99696119
    266000  -1260.2064      209.33059     -1469.537       275.39637      1491.2522      3840.7412      0.99696119
    267000  -1219.6125      230.78406     -1450.3965      303.62066     -385.86414      3840.7412      0.99696119
    268000  -1284.558       222.10176     -1506.6598      292.19819      1543.5329      3840.7412      0.99696119
    269000  -1259.0463      227.09704     -1486.1434      298.77001     -901.83343      3840.7412      0.99696119
    270000  -1255.3959      217.78894     -1473.1849      286.52422     -485.44712      3840.7412      0.99696119
    271000  -1256.6029      231.54094     -1488.1438      304.61642      252.36311      3840.7412      0.99696119
    272000  -1245.2497      223.17837     -1468.428       293.61459     -423.82818      3840.7412      0.99696119
    273000  -1297.9087      228.42283     -1526.3315      300.51422     -1473.5007      3840.7412      0.99696119
    274000  -1258.847       227.6513      -1486.4983      299.49919     -1204.0226      3840.7412      0.99696119
    275000  -1268.4912      239.5594      -1508.0506      315.16555      63.649178      3840.7412      0.99696119
    276000  -1288.9111      219.58051     -1508.4916      288.88122      331.68317      3840.7412      0.99696119
    277000  -1238.5532      227.12082     -1465.674       298.80128      533.72093      3840.7412      0.99696119
    278000  -1239.4411      240.55393     -1479.995       316.47396      1622.3485      3840.7412      0.99696119
    279000  -1260.8596      224.93156     -1485.7912      295.92109      487.88414      3840.7412      0.99696119
    280000  -1282.0912      209.16376     -1491.255       275.17688      1062.0738      3840.7412      0.99696119
    281000  -1291.1097      221.43248     -1512.5421      291.31768      153.66485      3840.7412      0.99696119
    282000  -1266.4225      222.9067      -1489.3292      293.25717     -541.66387      3840.7412      0.99696119
    283000  -1280.0102      224.12515     -1504.1354      294.86017      2185.7375      3840.7412      0.99696119
    284000  -1269.4881      223.38674     -1492.8749      293.88871      1376.5253      3840.7412      0.99696119
    285000  -1239.6758      234.29971     -1473.9755      308.24587      2317.7776      3840.7412      0.99696119
    286000  -1265.0808      214.87186     -1479.9527      282.6865       487.3632       3840.7412      0.99696119
    287000  -1221.8631      252.02282     -1473.8859      331.56249     -680.54848      3840.7412      0.99696119
    288000  -1246.0657      232.06253     -1478.1282      305.30262     -56.023384      3840.7412      0.99696119
    289000  -1245.6296      245.29585     -1490.9254      322.71245      559.03829      3840.7412      0.99696119
    290000  -1276.5336      221.64674     -1498.1804      291.59956      1225.1472      3840.7412      0.99696119
    291000  -1278.4237      223.0645      -1501.4882      293.46478      951.51397      3840.7412      0.99696119
    292000  -1258.6333      244.41601     -1503.0493      321.55492     -637.32708      3840.7412      0.99696119
    293000  -1262.1283      225.81109     -1487.9394      297.0782      -299.94606      3840.7412      0.99696119
    294000  -1285.022       240.68924     -1525.7113      316.65197      908.12763      3840.7412      0.99696119
    295000  -1250.7725      226.43546     -1477.208       297.89962     -374.37236      3840.7412      0.99696119
    296000  -1236.4544      217.21005     -1453.6644      285.76262      154.09936      3840.7412      0.99696119
    297000  -1283.3745      215.99903     -1499.3735      284.16941     -487.45333      3840.7412      0.99696119
    298000  -1240.9631      235.55345     -1476.5166      309.8953       317.98866      3840.7412      0.99696119
    299000  -1263.5001      240.48279     -1503.9829      316.38036      2528.9021      3840.7412      0.99696119
    300000  -1227.645       236.29387     -1463.9389      310.86939      3178.7777      3840.7412      0.99696119
    301000  -1277.8574      222.31501     -1500.1724      292.47874      1319.9218      3840.7412      0.99696119
    302000  -1299.9391      213.71157     -1513.6506      281.16001     -2350.2426      3840.7412      0.99696119
    303000  -1272.1633      235.14719     -1507.3105      309.36082     -459.13067      3840.7412      0.99696119
    304000  -1230.925       247.81943     -1478.7444      326.03248      186.61314      3840.7412      0.99696119
    305000  -1275.2521      225.94386     -1501.1959      297.25287      393.18489      3840.7412      0.99696119
    306000  -1297.1738      233.58401     -1530.7578      307.30429      168.0755       3840.7412      0.99696119
    307000  -1294.1751      232.77573     -1526.9508      306.24091      976.60071      3840.7412      0.99696119
    308000  -1283.1905      234.87865     -1518.0692      309.00753      388.07631      3840.7412      0.99696119
    309000  -1279.7887      201.58931     -1481.378       265.2119       930.48315      3840.7412      0.99696119
    310000  -1238.0372      237.61725     -1475.6544      312.61045     -518.08704      3840.7412      0.99696119
    311000  -1254.2747      230.70513     -1484.9798      303.51682     -1466.6024      3840.7412      0.99696119
    312000  -1243.9968      245.72263     -1489.7195      323.27392      502.70089      3840.7412      0.99696119
    313000  -1245.9253      228.10856     -1474.0338      300.10077      1879.9623      3840.7412      0.99696119
    314000  -1257.1933      229.36855     -1486.5618      301.75841     -222.43688      3840.7412      0.99696119
    315000  -1256.8696      215.36405     -1472.2336      283.33402      1014.0065      3840.7412      0.99696119
    316000  -1273.8065      209.35466     -1483.1611      275.42804      576.53099      3840.7412      0.99696119
    317000  -1271.2273      209.03441     -1480.2618      275.00672      2039.7323      3840.7412      0.99696119
    318000  -1246.3934      242.67672     -1489.0702      319.26671      992.8603       3840.7412      0.99696119
    319000  -1276.2582      233.54921     -1509.8074      307.25851      76.239568      3840.7412      0.99696119
    320000  -1293.4588      211.18998     -1504.6487      277.8426       462.94843      3840.7412      0.99696119
    321000  -1308.912       208.27599     -1517.188       274.00893      2046.4609      3840.7412      0.99696119
    322000  -1271.1432      215.50553     -1486.6487      283.52016     -958.86326      3840.7412      0.99696119
    323000  -1248.2471      229.92222     -1478.1693      302.48682     -1456.9711      3840.7412      0.99696119
    324000  -1259.3981      211.90113     -1471.2992      278.77819      1477.312       3840.7412      0.99696119
    325000  -1279.1844      210.08133     -1489.2657      276.38405     -210.87643      3840.7412      0.99696119
    326000  -1251.3162      220.98548     -1472.3017      290.7296      -484.83074      3840.7412      0.99696119
    327000  -1240.7211      230.79727     -1471.5183      303.63804      29.029251      3840.7412      0.99696119
    328000  -1237.0286      222.75295     -1459.7816      293.0549      -712.44297      3840.7412      0.99696119
    329000  -1239.8276      225.39224     -1465.2198      296.52716      826.31555      3840.7412      0.99696119
    330000  -1294.5138      217.12728     -1511.6411      285.65373     -1373.1504      3840.7412      0.99696119
    331000  -1262.7288      229.60471     -1492.3336      302.06911     -440.84824      3840.7412      0.99696119
    332000  -1318.3557      225.61038     -1543.966       296.81415      451.71117      3840.7412      0.99696119
    333000  -1311.9798      209.78534     -1521.7652      275.99465      571.88146      3840.7412      0.99696119
    334000  -1256.6114      231.33803     -1487.9494      304.34946      106.68036      3840.7412      0.99696119
    335000  -1248.3992      239.26769     -1487.6669      314.78178     -134.26217      3840.7412      0.99696119
    336000  -1241.8921      228.0902      -1469.9823      300.07661     -354.37417      3840.7412      0.99696119
    337000  -1311.5813      212.19267     -1523.774       279.16174     -82.711598      3840.7412      0.99696119
    338000  -1285.2229      211.61553     -1496.8384      278.40245      1674.4059      3840.7412      0.99696119
    339000  -1222.7191      236.89862     -1459.6177      311.66501     -162.66263      3840.7412      0.99696119
    340000  -1263.5501      232.09611     -1495.6462      305.3468       1150.3853      3840.7412      0.99696119
    341000  -1272.4948      233.79659     -1506.2914      307.58396     -228.54265      3840.7412      0.99696119
    342000  -1253.2821      232.32096     -1485.6031      305.64262     -538.7465       3840.7412      0.99696119
    343000  -1280.3081      203.39257     -1483.7007      267.58428     -2801.0517      3840.7412      0.99696119
    344000  -1258.2555      226.24719     -1484.5027      297.65193      401.39186      3840.7412      0.99696119
    345000  -1237.7698      251.74969     -1489.5195      331.20316     -405.71235      3840.7412      0.99696119
    346000  -1237.6273      237.32431     -1474.9516      312.22505      254.93576      3840.7412      0.99696119
    347000  -1248.0061      225.05073     -1473.0569      296.07787      284.68968      3840.7412      0.99696119
    348000  -1268.454       236.69067     -1505.1447      311.39143     -106.28525      3840.7412      0.99696119
    349000  -1279.4169      226.46348     -1505.8803      297.93648      448.04977      3840.7412      0.99696119
    350000  -1276.1191      215.37922     -1491.4983      283.35399      512.69412      3840.7412      0.99696119
    351000  -1268.3642      231.86297     -1500.2271      305.04009      724.61354      3840.7412      0.99696119
    352000  -1225.1354      226.82823     -1451.9636      298.41635      3006.9637      3840.7412      0.99696119
    353000  -1267.8344      235.61299     -1503.4474      309.97363      1938.5526      3840.7412      0.99696119
    354000  -1260.584       238.13136     -1498.7154      313.28681     -129.79906      3840.7412      0.99696119
    355000  -1274.5738      213.73371     -1488.3075      281.18913     -1651.6868      3840.7412      0.99696119
    356000  -1253.4994      242.77774     -1496.2771      319.39961      1892.5878      3840.7412      0.99696119
    357000  -1241.3206      236.8851      -1478.2057      311.64723      148.98652      3840.7412      0.99696119
    358000  -1246.9373      233.89128     -1480.8285      307.70854      1543.5275      3840.7412      0.99696119
    359000  -1265.4205      225.20185     -1490.6223      296.27669      590.71769      3840.7412      0.99696119
    360000  -1297.8088      209.66381     -1507.4726      275.83476     -695.94543      3840.7412      0.99696119
    361000  -1276.1449      236.95449     -1513.0994      311.73852      29.228683      3840.7412      0.99696119
    362000  -1269.5388      230.18517     -1499.724       302.83276     -1803.1562      3840.7412      0.99696119
    363000  -1262.5493      236.86356     -1499.4129      311.61888      782.96853      3840.7412      0.99696119
    364000  -1274.3656      221.43286     -1495.7984      291.31818     -772.48368      3840.7412      0.99696119
    365000  -1258.4245      225.87199     -1484.2965      297.15832      882.99496      3840.7412      0.99696119
    366000  -1222.5678      230.33773     -1452.9055      303.03346     -1474.1513      3840.7412      0.99696119
    367000  -1254.3756      243.03588     -1497.4115      319.73922     -1024.6947      3840.7412      0.99696119
    368000  -1299.6444      203.48185     -1503.1263      267.70175     -81.556786      3840.7412      0.99696119
    369000  -1271.2035      211.36586     -1482.5694      278.07399      1072.7562      3840.7412      0.99696119
    370000  -1287.7938      211.30956     -1499.1034      277.99992     -1259.4244      3840.7412      0.99696119
    371000  -1246.1149      231.78901     -1477.9039      304.94279      2312.2421      3840.7412      0.99696119
    372000  -1291.7607      218.87156     -1510.6323      287.94851      1405.9288      3840.7412      0.99696119
    373000  -1270.0022      218.4078      -1488.41        287.3384      -440.87291      3840.7412      0.99696119
    374000  -1231.5783      230.87377     -1462.4521      303.73869      662.4292       3840.7412      0.99696119
    375000  -1273.3177      207.99659     -1481.3143      273.64135      1012.0716      3840.7412      0.99696119
    376000  -1282.1569      199.33174     -1481.4886      262.24183      1701.8057      3840.7412      0.99696119
    377000  -1253.5122      224.09885     -1477.6111      294.82558     -875.18325      3840.7412      0.99696119
    378000  -1253.8164      226.28576     -1480.1021      297.70268     -217.22402      3840.7412      0.99696119
    379000  -1230.349       243.66101     -1474.0101      320.56165     -182.15722      3840.7412      0.99696119
    380000  -1211.4381      240.0382      -1451.4763      315.79546     -153.30756      3840.7412      0.99696119
    381000  -1276.8812      239.11564     -1515.9968      314.58174     -1660.2999      3840.7412      0.99696119
    382000  -1278.0968      230.73081     -1508.8276      303.55061     -1756.1702      3840.7412      0.99696119
    383000  -1250.4353      245.58494     -1496.0202      323.09278     -251.73421      3840.7412      0.99696119
    384000  -1269.5223      216.01793     -1485.5402      284.19427      979.40367      3840.7412      0.99696119
    385000  -1218.0004      237.66695     -1455.6673      312.67583      313.40163      3840.7412      0.99696119
    386000  -1233.3272      250.17766     -1483.5049      329.13498      1051.0737      3840.7412      0.99696119
    387000  -1259.2336      218.21039     -1477.444       287.07869     -369.34837      3840.7412      0.99696119
    388000  -1272.6234      214.47675     -1487.1001      282.16669     -723.92295      3840.7412      0.99696119
    389000  -1259.4906      237.66344     -1497.154       312.67121     -425.61689      3840.7412      0.99696119
    390000  -1279.4791      235.25712     -1514.7362      309.50545     -579.35522      3840.7412      0.99696119
    391000  -1318.8401      200.37417     -1519.2143      263.61327      1313.5834      3840.7412      0.99696119
    392000  -1315.0519      223.52146     -1538.5734      294.06595      638.74437      3840.7412      0.99696119
    393000  -1286.6162      226.16976     -1512.786       297.55007      2859.4249      3840.7412      0.99696119
    394000  -1256.1488      231.88997     -1488.0387      305.07561      2415.301       3840.7412      0.99696119
    395000  -1253.8951      224.68016     -1478.5753      295.59034      1342.5859      3840.7412      0.99696119
    396000  -1297.6226      213.86355     -1511.4861      281.35995      113.81642      3840.7412      0.99696119
    397000  -1300.2359      235.49654     -1535.7324      309.82042     -114.46856      3840.7412      0.99696119
    398000  -1261.9835      245.20957     -1507.193       322.59894      1771.7916      3840.7412      0.99696119
    399000  -1275.9722      208.67821     -1484.6504      274.5381       2552.0353      3840.7412      0.99696119
    400000  -1223.7763      254.29594     -1478.0723      334.55302      519.92808      3840.7412      0.99696119
    401000  -1242.7393      234.9793      -1477.7186      309.13995      1746.8885      3840.7412      0.99696119
    402000  -1274.8902      217.66666     -1492.5569      286.36334     -978.26592      3840.7412      0.99696119
    403000  -1236.4383      221.80476     -1458.2431      291.80745      632.3426       3840.7412      0.99696119
    404000  -1263.5013      231.79061     -1495.2919      304.94488      1485.4343      3840.7412      0.99696119
    405000  -1255.4662      222.90382     -1478.37        293.25338      1324.5316      3840.7412      0.99696119
    406000  -1269.7177      229.39903     -1499.1167      301.79852     -452.31659      3840.7412      0.99696119
    407000  -1265.6695      229.34702     -1495.0165      301.73008     -153.47883      3840.7412      0.99696119
    408000  -1322.2565      210.03421     -1532.2907      276.32206     -1952.4246      3840.7412      0.99696119
    409000  -1281.2045      222.5832      -1503.7877      292.83158     -2553.6757      3840.7412      0.99696119
    410000  -1250.2987      221.11354     -1471.4122      290.89808     -785.69927      3840.7412      0.99696119
    411000  -1262.3875      226.13496     -1488.5225      297.50429      1329.2988      3840.7412      0.99696119
    412000  -1269.6031      218.82698     -1488.4301      287.88987      1683.346       3840.7412      0.99696119
    413000  -1249.7315      221.03687     -1470.7683      290.79721     -830.90059      3840.7412      0.99696119
    414000  -1261.0937      219.91199     -1481.0057      289.31731      691.3727       3840.7412      0.99696119
    415000  -1294.4558      214.75804     -1509.2138      282.53676     -1653.4339      3840.7412      0.99696119
    416000  -1262.4294      216.12617     -1478.5556      284.33668     -2481.8471      3840.7412      0.99696119
    417000  -1261.383       215.86269     -1477.2457      283.99004      533.09337      3840.7412      0.99696119
    418000  -1232.4553      234.54686     -1467.0021      308.57102      219.37077      3840.7412      0.99696119
    419000  -1247.6467      234.5698      -1482.2165      308.6012       411.30853      3840.7412      0.99696119
    420000  -1286.0257      224.29831     -1510.324       295.08797      517.50436      3840.7412      0.99696119
    421000  -1192.2623      273.37347     -1465.6358      359.65151      661.66046      3840.7412      0.99696119
    422000  -1257.2564      212.56584     -1469.8222      279.65268      559.63291      3840.7412      0.99696119
    423000  -1205.6537      251.27934     -1456.9331      330.58436     -515.8963       3840.7412      0.99696119
    424000  -1260.4778      217.92434     -1478.4021      286.70235     -749.89526      3840.7412      0.99696119
    425000  -1280.2044      212.37781     -1492.5822      279.40532      287.316        3840.7412      0.99696119
    426000  -1296.9191      207.6455      -1504.5646      273.17946      1169.9424      3840.7412      0.99696119
    427000  -1292.7724      217.76501     -1510.5374      286.49274      155.18329      3840.7412      0.99696119
    428000  -1295.7956      201.60192     -1497.3976      265.2285      -1544.7487      3840.7412      0.99696119
    429000  -1251.3422      222.65885     -1474.001       292.9311      -229.87953      3840.7412      0.99696119
    430000  -1269.084       229.5436      -1498.6276      301.98872      1012.4091      3840.7412      0.99696119
    431000  -1247.1648      227.23241     -1474.3972      298.9481      -310.12317      3840.7412      0.99696119
    432000  -1252.5192      220.09972     -1472.6189      289.5643       556.8343       3840.7412      0.99696119
    433000  -1259.2555      216.82355     -1476.079       285.25415     -267.76831      3840.7412      0.99696119
    434000  -1268.7126      234.69839     -1503.411       308.77038     -1203.1122      3840.7412      0.99696119
    435000  -1290.892       206.0575      -1496.9495      271.09028     -943.11139      3840.7412      0.99696119
    436000  -1291.5736      219.34311     -1510.9167      288.5689       632.94391      3840.7412      0.99696119
    437000  -1244.2648      221.84611     -1466.1109      291.86185      619.64065      3840.7412      0.99696119
    438000  -1277.2972      216.33385     -1493.6311      284.6099      -73.854928      3840.7412      0.99696119
    439000  -1269.5113      236.98456     -1506.4958      311.77807     -227.13427      3840.7412      0.99696119
    440000  -1270.1633      212.62895     -1482.7923      279.73571     -1126.3442      3840.7412      0.99696119
    441000  -1320.1933      202.24846     -1522.4418      266.07908     -430.85057      3840.7412      0.99696119
    442000  -1274.6252      221.83158     -1496.4568      291.84274      1738.9732      3840.7412      0.99696119
    443000  -1276.2374      234.83618     -1511.0736      308.95165     -2527.3871      3840.7412      0.99696119
    444000  -1270.4666      220.00717     -1490.4738      289.44253     -419.42114      3840.7412      0.99696119
    445000  -1266.2275      225.41514     -1491.6426      296.55729      298.64004      3840.7412      0.99696119
    446000  -1260.7945      229.86005     -1490.6545      302.40503      1832.612       3840.7412      0.99696119
    447000  -1286.3624      205.40184     -1491.7642      270.22769     -108.72999      3840.7412      0.99696119
    448000  -1243.4263      222.4514      -1465.8777      292.65817      670.31787      3840.7412      0.99696119
    449000  -1255.0247      248.51603     -1503.5407      326.94894     -1606.2671      3840.7412      0.99696119
    450000  -1232.193       243.09037     -1475.2834      319.8109      -103.19634      3840.7412      0.99696119
    451000  -1268.9055      237.63521     -1506.5408      312.63407     -2088.6104      3840.7412      0.99696119
    452000  -1283.722       228.84002     -1512.562       301.06307      782.92094      3840.7412      0.99696119
    453000  -1234.5573      264.72902     -1499.2863      348.27882      877.58394      3840.7412      0.99696119
    454000  -1266.6498      235.10234     -1501.7521      309.30182      949.2609       3840.7412      0.99696119
    455000  -1253.506       214.86967     -1468.3757      282.68361     -251.91998      3840.7412      0.99696119
    456000  -1264.9119      230.60228     -1495.5142      303.38151      574.32524      3840.7412      0.99696119
    457000  -1244.7626      243.73329     -1488.4959      320.65674     -151.79358      3840.7412      0.99696119
    458000  -1285.421       222.96653     -1508.3876      293.33589     -2008.7763      3840.7412      0.99696119
    459000  -1268.49        236.23299     -1504.723       310.7893      -1111.7208      3840.7412      0.99696119
    460000  -1258.6702      235.55726     -1494.2275      309.90031      632.92216      3840.7412      0.99696119
    461000  -1271.9011      208.62457     -1480.5257      274.46753      301.37668      3840.7412      0.99696119
    462000  -1280.0933      229.73277     -1509.8261      302.23759     -283.61476      3840.7412      0.99696119
    463000  -1246.4727      236.67614     -1483.1489      311.37232      648.20391      3840.7412      0.99696119
    464000  -1282.754       209.13654     -1491.8906      275.14108      331.85116      3840.7412      0.99696119
    465000  -1232.9633      238.09573     -1471.059       313.23994      1036.108       3840.7412      0.99696119
    466000  -1279.4002      211.66093     -1491.0612      278.46218     -1672.398       3840.7412      0.99696119
    467000  -1231.1843      243.86229     -1475.0465      320.82646      1602.5503      3840.7412      0.99696119
    468000  -1264.448       225.54382     -1489.9918      296.72658      2467.8747      3840.7412      0.99696119
    469000  -1262.5265      220.3133      -1482.8398      289.84528      2368.7665      3840.7412      0.99696119
    470000  -1289.1357      229.32557     -1518.4613      301.70186     -793.24946      3840.7412      0.99696119
    471000  -1238.7512      245.89107     -1484.6423      323.49552     -178.97376      3840.7412      0.99696119
    472000  -1238.1274      225.42605     -1463.5535      296.57164      180.5758       3840.7412      0.99696119
    473000  -1272.0541      219.20404     -1491.2581      288.38593      955.536        3840.7412      0.99696119
    474000  -1240.8032      248.58213     -1489.3853      327.03589      1005.5632      3840.7412      0.99696119
    475000  -1275.7579      237.52407     -1513.282       312.48786     -947.92918      3840.7412      0.99696119
    476000  -1269.5428      244.67396     -1514.2168      321.89429     -1124.5909      3840.7412      0.99696119
    477000  -1304.6771      235.56772     -1540.2448      309.91407      15.990955      3840.7412      0.99696119
    478000  -1291.9661      221.2381      -1513.2042      291.06195      2102.2889      3840.7412      0.99696119
    479000  -1294.4219      226.76015     -1521.182       298.32679      1248.8593      3840.7412      0.99696119
    480000  -1257.0868      237.31069     -1494.3974      312.20713      723.84435      3840.7412      0.99696119
    481000  -1295.838       225.06629     -1520.9043      296.09834     -1808.0506      3840.7412      0.99696119
    482000  -1282.4225      231.02541     -1513.4479      303.93818      325.41191      3840.7412      0.99696119
    483000  -1305.2136      196.21266     -1501.4263      258.13836      727.47919      3840.7412      0.99696119
    484000  -1277.6426      233.69117     -1511.3338      307.44527     -203.59029      3840.7412      0.99696119
    485000  -1289.3563      204.15577     -1493.5121      268.58835     -1175.8976      3840.7412      0.99696119
    486000  -1293.032       233.65149     -1526.6835      307.39307      513.75873      3840.7412      0.99696119
    487000  -1233.5471      231.10531     -1464.6524      304.0433      -116.20713      3840.7412      0.99696119
    488000  -1244.5754      235.82371     -1480.3991      310.25086     -1076.963       3840.7412      0.99696119
    489000  -1238.9996      251.0111      -1490.0107      330.23146      1578.3978      3840.7412      0.99696119
    490000  -1252.6416      228.02374     -1480.6654      299.98918      1470.1111      3840.7412      0.99696119
    491000  -1270.9925      222.46266     -1493.4551      292.673       -1040.9726      3840.7412      0.99696119
    492000  -1246.9797      234.48974     -1481.4694      308.49588     -210.81859      3840.7412      0.99696119
    493000  -1259.5573      227.93002     -1487.4873      299.86587      1429.3801      3840.7412      0.99696119
    494000  -1285.6738      222.54354     -1508.2174      292.77939     -447.84488      3840.7412      0.99696119
    495000  -1255.8956      248.109       -1504.0046      326.41344      382.51514      3840.7412      0.99696119
    496000  -1264.0982      212.7241      -1476.8223      279.86089      1415.1099      3840.7412      0.99696119
    497000  -1303.578       210.62368     -1514.2017      277.09757      1571.5422      3840.7412      0.99696119
    498000  -1245.418       239.11855     -1484.5365      314.58556      3476.9597      3840.7412      0.99696119
    499000  -1254.8254      213.51863     -1468.3441      280.90618      304.05907      3840.7412      0.99696119
    500000  -1280.0179      222.26113     -1502.279       292.40786      1779.9025      3840.7412      0.99696119
    501000  -1210.1494      258.00467     -1468.154       339.43224      1785.75        3840.7412      0.99696119
    502000  -1244.8059      232.26005     -1477.0659      305.56249     -2580.5323      3840.7412      0.99696119
    503000  -1259.2363      221.30907     -1480.5454      291.15532      650.8105       3840.7412      0.99696119
    504000  -1293.9346      224.91501     -1518.8496      295.89931      944.17036      3840.7412      0.99696119
    505000  -1264.9821      224.06451     -1489.0467      294.78039     -277.85961      3840.7412      0.99696119
    506000  -1279.4262      220.73628     -1500.1624      290.40175     -788.03197      3840.7412      0.99696119
    507000  -1265.9931      228.95874     -1494.9518      301.21927      2154.3928      3840.7412      0.99696119
    508000  -1262.9085      231.86563     -1494.7742      305.04358     -781.91707      3840.7412      0.99696119
    509000  -1243.0479      240.58147     -1483.6294      316.51018     -346.265        3840.7412      0.99696119
    510000  -1275.5075      208.30323     -1483.8107      274.04477      970.55346      3840.7412      0.99696119
    511000  -1298.7191      221.04645     -1519.7656      290.80982     -642.09755      3840.7412      0.99696119
    512000  -1269.8186      219.56752     -1489.3861      288.86412      362.64894      3840.7412      0.99696119
    513000  -1271.5858      222.76384     -1494.3496      293.06923     -1191.0193      3840.7412      0.99696119
    514000  -1305.2049      207.9031      -1513.108       273.51836     -1959.5284      3840.7412      0.99696119
    515000  -1303.4615      213.86273     -1517.3242      281.35888     -212.01264      3840.7412      0.99696119
    516000  -1253.0042      220.73641     -1473.7406      290.40192      2583.1904      3840.7412      0.99696119
    517000  -1244.993       215.29071     -1460.2837      283.23753     -248.97102      3840.7412      0.99696119
    518000  -1259.1504      205.78743     -1464.9379      270.73498      1818.6328      3840.7412      0.99696119
    519000  -1266.4869      213.38719     -1479.8741      280.73326      1289.8282      3840.7412      0.99696119
    520000  -1275.391       217.76919     -1493.1602      286.49823      2245.2068      3840.7412      0.99696119
    521000  -1298.6897      210.32735     -1509.017       276.70771     -1210.6957      3840.7412      0.99696119
    522000  -1287.4824      227.2956      -1514.778       299.03123      449.42958      3840.7412      0.99696119
    523000  -1254.3291      230.81889     -1485.148       303.66648      87.927048      3840.7412      0.99696119
    524000  -1231.3235      215.96885     -1447.2924      284.1297       1670.2903      3840.7412      0.99696119
    525000  -1274.0091      220.95793     -1494.9671      290.69336     -276.74789      3840.7412      0.99696119
    526000  -1290.2576      215.26841     -1505.526       283.20819      93.870911      3840.7412      0.99696119
    527000  -1252.155       233.77138     -1485.9263      307.5508       499.32411      3840.7412      0.99696119
    528000  -1284.9203      214.22687     -1499.1472      281.83794     -119.45057      3840.7412      0.99696119
    529000  -1249.6589      224.96769     -1474.6266      295.96862      2003.4439      3840.7412      0.99696119
    530000  -1263.0736      246.36842     -1509.442       324.12352     -1138.6514      3840.7412      0.99696119
    531000  -1274.1201      229.66854     -1503.7887      302.15309     -1090.4563      3840.7412      0.99696119
    532000  -1263.8402      217.22391     -1481.0642      285.78086      1713.0499      3840.7412      0.99696119
    533000  -1283.9922      218.9457      -1502.9379      288.04606     -2511.4805      3840.7412      0.99696119
    534000  -1266.7287      224.51152     -1491.2402      295.36849      481.99957      3840.7412      0.99696119
    535000  -1290.5144      224.08992     -1514.6043      294.81383      1695.9631      3840.7412      0.99696119
    536000  -1264.5247      235.40254     -1499.9273      309.69676     -986.12023      3840.7412      0.99696119
    537000  -1241.7165      224.41558     -1466.132       295.24226      2601.7987      3840.7412      0.99696119
    538000  -1262.5158      216.71616     -1479.232       285.11286     -548.61746      3840.7412      0.99696119
    539000  -1264.5215      228.30566     -1492.8272      300.36007     -810.3836       3840.7412      0.99696119
    540000  -1254.5833      219.87609     -1474.4594      289.27009      430.05043      3840.7412      0.99696119
    541000  -1251.7171      233.34357     -1485.0606      306.98796     -1393.5919      3840.7412      0.99696119
    542000  -1300.249       235.42393     -1535.6729      309.7249      -456.72111      3840.7412      0.99696119
    543000  -1278.102       218.6407      -1496.7427      287.6448      -485.03342      3840.7412      0.99696119
    544000  -1246.5517      216.56441     -1463.1161      284.91322     -2030.8587      3840.7412      0.99696119
    545000  -1237.7294      232.01723     -1469.7467      305.24302     -557.23109      3840.7412      0.99696119
    546000  -1247.9338      223.13022     -1471.0641      293.55123     -3.3516154      3840.7412      0.99696119
    547000  -1281.3147      210.72862     -1492.0434      277.23563     -100.83575      3840.7412      0.99696119
    548000  -1267.6998      238.64084     -1506.3407      313.95709     -7.0293568      3840.7412      0.99696119
    549000  -1326.9783      205.04445     -1532.0228      269.75751      96.323544      3840.7412      0.99696119
    550000  -1275.7835      229.97393     -1505.7574      302.55486     -791.30263      3840.7412      0.99696119
    551000  -1286.3602      241.70583     -1528.066       317.9894      -635.45718      3840.7412      0.99696119
    552000  -1267.6277      232.63024     -1500.2579      306.04952     -351.82552      3840.7412      0.99696119
    553000  -1305.5638      216.16876     -1521.7325      284.3927      -87.388783      3840.7412      0.99696119
    554000  -1260.6894      241.96193     -1502.6513      318.32632      866.28119      3840.7412      0.99696119
    555000  -1262.4328      239.70322     -1502.136       315.35476      478.49932      3840.7412      0.99696119
    556000  -1298.8763      228.00862     -1526.8849      299.96928     -2021.5295      3840.7412      0.99696119
    557000  -1272.62        228.45585     -1501.0759      300.55766     -248.43601      3840.7412      0.99696119
    558000  -1273.1429      231.12166     -1504.2645      304.06481      262.20274      3840.7412      0.99696119
    559000  -1293.3979      222.68027     -1516.0781      292.95928     -856.82399      3840.7412      0.99696119
    560000  -1282.4696      214.98603     -1497.4556      282.8367      -1805.6082      3840.7412      0.99696119
    561000  -1293.2844      233.98352     -1527.2679      307.82988      246.25         3840.7412      0.99696119
    562000  -1243.8454      237.56864     -1481.4141      312.54649      34.601021      3840.7412      0.99696119
    563000  -1257.5681      231.33473     -1488.9028      304.34513      1949.6809      3840.7412      0.99696119
    564000  -1300.0058      221.45942     -1521.4652      291.35312     -6.4348757      3840.7412      0.99696119
    565000  -1241.3313      223.35541     -1464.6867      293.8475       4054.9082      3840.7412      0.99696119
    566000  -1273.3776      231.77464     -1505.1522      304.92388      623.66584      3840.7412      0.99696119
    567000  -1294.077       216.06602     -1510.143       284.25754     -1276.7408      3840.7412      0.99696119
    568000  -1261.838       233.07333     -1494.9113      306.63244     -2180.8917      3840.7412      0.99696119
    569000  -1217.5417      239.75893     -1457.3007      315.42805      2067.9623      3840.7412      0.99696119
    570000  -1296.6917      221.81675     -1518.5084      291.82323     -691.05243      3840.7412      0.99696119
    571000  -1256.3097      218.37155     -1474.6813      287.29071      879.28571      3840.7412      0.99696119
    572000  -1268.2408      219.88937     -1488.1302      289.28756     -1521.3024      3840.7412      0.99696119
    573000  -1254.2463      222.52671     -1476.773       292.75726      849.97693      3840.7412      0.99696119
    574000  -1260.4024      236.63229     -1497.0347      311.31462      1079.8852      3840.7412      0.99696119
    575000  -1241.2297      245.20826     -1486.4379      322.59722      1687.6468      3840.7412      0.99696119
    576000  -1242.7345      246.66897     -1489.4035      324.51893     -518.57711      3840.7412      0.99696119
    577000  -1285.9919      205.16166     -1491.1536      269.91171      1304.3952      3840.7412      0.99696119
    578000  -1264.0341      229.85572     -1493.8899      302.39933      647.18674      3840.7412      0.99696119
    579000  -1257.2146      223.08391     -1480.2985      293.49031      1335.8989      3840.7412      0.99696119
    580000  -1279.2548      222.22439     -1501.4792      292.35952      16.912002      3840.7412      0.99696119
    581000  -1275.1632      217.6369      -1492.8001      286.3242       2243.8573      3840.7412      0.99696119
    582000  -1276.1521      222.47286     -1498.625       292.68641      296.301        3840.7412      0.99696119
    583000  -1281.478       225.84217     -1507.3202      297.11909      593.1704       3840.7412      0.99696119
    584000  -1257.8743      210.5054      -1468.3797      276.94196      1374.5458      3840.7412      0.99696119
    585000  -1267.3445      224.02101     -1491.3656      294.72316      13.840746      3840.7412      0.99696119
    586000  -1231.222       241.12409     -1472.3461      317.22405      1545.1438      3840.7412      0.99696119
    587000  -1292.1137      204.80284     -1496.9165      269.43964     -90.613567      3840.7412      0.99696119
    588000  -1231.1969      234.11201     -1465.3089      307.99893     -1154.1299      3840.7412      0.99696119
    589000  -1261.6032      226.78664     -1488.3898      298.36163      880.30796      3840.7412      0.99696119
    590000  -1237.6822      217.40223     -1455.0845      286.01547     -61.7872        3840.7412      0.99696119
    591000  -1254.7326      218.0685      -1472.8011      286.892        792.10007      3840.7412      0.99696119
    592000  -1273.703       233.04958     -1506.7526      306.6012       1075.6103      3840.7412      0.99696119
    593000  -1269.443       230.89221     -1500.3352      303.76295     -910.24006      3840.7412      0.99696119
    594000  -1280.7276      226.63361     -1507.3612      298.16031     -804.6803       3840.7412      0.99696119
    595000  -1248.6748      251.11781     -1499.7926      330.37184     -1844.8718      3840.7412      0.99696119
    596000  -1242.4139      244.69077     -1487.1047      321.9164       340.4785       3840.7412      0.99696119
    597000  -1241.2136      237.53191     -1478.7455      312.49817      1124.824       3840.7412      0.99696119
    598000  -1269.4135      232.02713     -1501.4406      305.25606     -683.74764      3840.7412      0.99696119
    599000  -1268.0158      211.32937     -1479.3451      278.02598     -1031.2525      3840.7412      0.99696119
    600000  -1215.4078      241.36423     -1456.772       317.53999      1377.1513      3840.7412      0.99696119
    601000  -1258.0356      220.88029     -1478.9159      290.59122      644.96191      3840.7412      0.99696119
    602000  -1221.5062      227.99351     -1449.4997      299.9494       263.53093      3840.7412      0.99696119
    603000  -1279.7317      217.41411     -1497.1458      286.03109      1590.6066      3840.7412      0.99696119
    604000  -1282.989       209.36412     -1492.3531      275.44049      737.74685      3840.7412      0.99696119
    605000  -1293.9024      221.92956     -1515.832       291.97164     -224.08321      3840.7412      0.99696119
    606000  -1304.6235      215.98768     -1520.6112      284.15447     -873.06163      3840.7412      0.99696119
    607000  -1285.5847      225.96557     -1511.5502      297.28143      203.10664      3840.7412      0.99696119
    608000  -1274.608       224.36654     -1498.9746      295.17774      113.85206      3840.7412      0.99696119
    609000  -1243.2938      216.59608     -1459.8899      284.95488     -1799.8351      3840.7412      0.99696119
    610000  -1306.9238      209.52793     -1516.4517      275.656       -1820.8717      3840.7412      0.99696119
    611000  -1238.3241      225.62629     -1463.9503      296.83507      914.81228      3840.7412      0.99696119
    612000  -1258.4239      234.40896     -1492.8329      308.38961      871.09146      3840.7412      0.99696119
    613000  -1284.3018      239.14696     -1523.4488      314.62293      290.89924      3840.7412      0.99696119
    614000  -1265.5424      220.49685     -1486.0393      290.08676     -711.16728      3840.7412      0.99696119
    615000  -1258.5198      232.72479     -1491.2446      306.1739      -920.20049      3840.7412      0.99696119
    616000  -1252.6533      240.74792     -1493.4012      316.72917     -121.18461      3840.7412      0.99696119
    617000  -1240.6743      225.76412     -1466.4384      297.01641      138.22369      3840.7412      0.99696119
    618000  -1210.9623      241.60565     -1452.568       317.85761     -609.90828      3840.7412      0.99696119
    619000  -1222.1969      246.39438     -1468.5913      324.15768     -295.48219      3840.7412      0.99696119
    620000  -1268.4849      212.29039     -1480.7753      279.29029     -1890.12        3840.7412      0.99696119
    621000  -1268.9902      234.46986     -1503.4601      308.46972     -923.34414      3840.7412      0.99696119
    622000  -1246.9383      231.51005     -1478.4483      304.57578      174.33905      3840.7412      0.99696119
    623000  -1265.6809      223.46443     -1489.1453      293.99092     -861.02082      3840.7412      0.99696119
    624000  -1250.2609      220.49953     -1470.7604      290.09029     -1519.7663      3840.7412      0.99696119
    625000  -1287.2771      223.80681     -1511.084       294.44136      1287.0757      3840.7412      0.99696119
    626000  -1245.3485      217.60932     -1462.9579      286.28791      396.01406      3840.7412      0.99696119
    627000  -1272.0865      214.03726     -1486.1238      281.58849      495.26205      3840.7412      0.99696119
    628000  -1257.3882      225.46085     -1482.8491      296.61742      403.88423      3840.7412      0.99696119
    629000  -1248.7671      227.58157     -1476.3487      299.40745      1469.0033      3840.7412      0.99696119
    630000  -1276.2177      216.26039     -1492.4781      284.51326      337.75216      3840.7412      0.99696119
    631000  -1208.6905      245.6183      -1454.3088      323.13667      1560.7856      3840.7412      0.99696119
    632000  -1273.5768      219.45494     -1493.0317      288.71602     -572.34245      3840.7412      0.99696119
    633000  -1270.3906      225.2982      -1495.6888      296.40345     -1698.2369      3840.7412      0.99696119
    634000  -1306.8258      222.85061     -1529.6764      293.18337     -303.65156      3840.7412      0.99696119
    635000  -1288.5912      224.82346     -1513.4147      295.77888      513.42894      3840.7412      0.99696119
    636000  -1246.1729      232.03327     -1478.2061      305.26413      177.54809      3840.7412      0.99696119
    637000  -1263.5919      228.7286      -1492.3205      300.91649     -1239.2496      3840.7412      0.99696119
    638000  -1237.3478      250.26634     -1487.6142      329.25165     -1640.7874      3840.7412      0.99696119
    639000  -1277.4007      209.31926     -1486.72        275.38147      333.95055      3840.7412      0.99696119
    640000  -1227.2689      237.23945     -1464.5083      312.1134       707.13963      3840.7412      0.99696119
    641000  -1243.0201      227.44779     -1470.4679      299.23145     -1257.1196      3840.7412      0.99696119
    642000  -1254.7018      228.96326     -1483.6651      301.22521     -1080.1296      3840.7412      0.99696119
    643000  -1279.7765      222.88673     -1502.6632      293.2309       1432.8488      3840.7412      0.99696119
    644000  -1311.4476      198.65778     -1510.1053      261.35517     -2284.716       3840.7412      0.99696119
    645000  -1313.5579      211.21256     -1524.7704      277.8723       565.63429      3840.7412      0.99696119
    646000  -1259.7103      216.9096      -1476.6199      285.36736      428.24114      3840.7412      0.99696119
    647000  -1267.6365      227.08671     -1494.7232      298.75642      779.80459      3840.7412      0.99696119
    648000  -1224.79        234.63159     -1459.4216      308.6825       443.19509      3840.7412      0.99696119
    649000  -1201.4599      234.15291     -1435.6128      308.05274     -1004.7469      3840.7412      0.99696119
    650000  -1259.473       221.70941     -1481.1824      291.68201     -510.23515      3840.7412      0.99696119
[...]
   2842000  -1246.4791      236.15615     -1482.6352      310.68821     -465.45009      3840.7412      0.99696119
   2843000  -1274.1743      207.01533     -1481.1896      272.3504       866.72238      3840.7412      0.99696119
   2844000  -1265.1069      218.10606     -1483.2129      286.94142     -1966.2973      3840.7412      0.99696119
   2845000  -1266.1425      223.35145     -1489.494       293.84228     -750.55341      3840.7412      0.99696119
   2846000  -1254.0693      236.30871     -1490.378       310.88893     -640.56133      3840.7412      0.99696119
   2847000  -1258.1785      217.93596     -1476.1144      286.71764     -252.75648      3840.7412      0.99696119
   2848000  -1282.2514      232.70818     -1514.9596      306.15205      1061.0841      3840.7412      0.99696119
   2849000  -1282.9716      226.39346     -1509.3651      297.84437     -397.32295      3840.7412      0.99696119
   2850000  -1229.2061      234.52501     -1463.7312      308.54227      491.25934      3840.7412      0.99696119
   2851000  -1270.1169      226.01722     -1496.1341      297.34938     -845.85988      3840.7412      0.99696119
   2852000  -1257.6123      218.30459     -1475.9169      287.20261      1370.4561      3840.7412      0.99696119
   2853000  -1248.4005      208.57902     -1456.9795      274.4076      -641.03061      3840.7412      0.99696119
   2854000  -1273.0616      213.51669     -1486.5783      280.90363      1301.0727      3840.7412      0.99696119
   2855000  -1235.5133      221.49588     -1457.0092      291.40109     -1564.0377      3840.7412      0.99696119
   2856000  -1271.3319      229.76471     -1501.0966      302.2796      -370.16312      3840.7412      0.99696119
   2857000  -1242.1314      237.87011     -1480.0015      312.94311     -399.41294      3840.7412      0.99696119
   2858000  -1249.4639      230.34789     -1479.8118      303.04684      54.851726      3840.7412      0.99696119
   2859000  -1257.3581      231.59035     -1488.9485      304.68143      1502.7456      3840.7412      0.99696119
   2860000  -1287.3276      221.30719     -1508.6348      291.15285     -180.1977       3840.7412      0.99696119
   2861000  -1264.4337      238.674       -1503.1077      314.0007       937.91313      3840.7412      0.99696119
   2862000  -1256.3236      237.28173     -1493.6054      312.16903      1553.602       3840.7412      0.99696119
   2863000  -1271.6338      229.24952     -1500.8833      301.60182     -1566.6109      3840.7412      0.99696119
   2864000  -1259.2923      227.31359     -1486.6059      299.05489      502.09594      3840.7412      0.99696119
   2865000  -1254.8066      236.80553     -1491.6122      311.54254      438.07443      3840.7412      0.99696119
   2866000  -1269.1126      230.04836     -1499.1609      302.65277      607.9604       3840.7412      0.99696119
   2867000  -1249.7049      260.56138     -1510.2663      342.79586     -190.43744      3840.7412      0.99696119
   2868000  -1270.119       203.39494     -1473.5139      267.58741      680.9736       3840.7412      0.99696119
   2869000  -1265.7307      221.13946     -1486.8701      290.93218     -1770.9159      3840.7412      0.99696119
   2870000  -1260.5726      216.92747     -1477.5001      285.39086      379.15884      3840.7412      0.99696119
   2871000  -1270.4934      243.89216     -1514.3855      320.86574     -1524.3283      3840.7412      0.99696119
   2872000  -1248.1437      237.53629     -1485.68        312.50394      615.01205      3840.7412      0.99696119
   2873000  -1286.4943      236.15343     -1522.6477      310.68464      1273.2034      3840.7412      0.99696119
   2874000  -1261.0697      223.02476     -1484.0945      293.41249      964.08079      3840.7412      0.99696119
   2875000  -1244.0468      231.43062     -1475.4774      304.47128     -710.13879      3840.7412      0.99696119
   2876000  -1235.1534      235.03113     -1470.1846      309.20813      1101.2405      3840.7412      0.99696119
   2877000  -1261.9706      244.54825     -1506.5189      321.7289      -1201.9619      3840.7412      0.99696119
   2878000  -1205.2873      250.30547     -1455.5928      329.30313      118.64815      3840.7412      0.99696119
   2879000  -1258.5829      221.23644     -1479.8194      291.05977      393.96286      3840.7412      0.99696119
   2880000  -1286.1425      201.17092     -1487.3135      264.66147     -326.47732      3840.7412      0.99696119
   2881000  -1234.7985      236.35452     -1471.153       310.94919      1219.9484      3840.7412      0.99696119
   2882000  -1211.1672      241.57231     -1452.7395      317.81374      666.96871      3840.7412      0.99696119
   2883000  -1281.2367      219.19068     -1500.4273      288.36836      187.40363      3840.7412      0.99696119
   2884000  -1258.3154      231.70284     -1490.0183      304.82942     -909.41221      3840.7412      0.99696119
   2885000  -1310.811       208.44476     -1519.2557      274.23096      582.40436      3840.7412      0.99696119
   2886000  -1282.256       224.8222      -1507.0782      295.77722      1032.4942      3840.7412      0.99696119
   2887000  -1265.3304      225.52556     -1490.8559      296.70256      2655.8333      3840.7412      0.99696119
   2888000  -1305.1292      214.48956     -1519.6188      282.18354      650.46754      3840.7412      0.99696119
   2889000  -1309.9812      232.81785     -1542.799       306.29632     -312.51305      3840.7412      0.99696119
   2890000  -1278.2368      228.68573     -1506.9225      300.86009      914.58436      3840.7412      0.99696119
   2891000  -1275.2878      238.38812     -1513.6759      313.6246      -1104.9931      3840.7412      0.99696119
   2892000  -1276.3528      225.80123     -1502.154       297.06522      217.15522      3840.7412      0.99696119
   2893000  -1270.8004      238.86139     -1509.6617      314.24724      777.90055      3840.7412      0.99696119
   2894000  -1274.0192      220.53664     -1494.5558      290.13911      1404.4246      3840.7412      0.99696119
   2895000  -1265.3277      210.34668     -1475.6744      276.73315      770.93732      3840.7412      0.99696119
   2896000  -1254.0799      233.36505     -1487.445       307.01622      1341.6999      3840.7412      0.99696119
   2897000  -1240.4579      219.79124     -1460.2491      289.15846      1072.8805      3840.7412      0.99696119
   2898000  -1281.786       217.34695     -1499.1329      285.94274      1336.1439      3840.7412      0.99696119
   2899000  -1286.7826      229.70179     -1516.4844      302.19683     -1210.0477      3840.7412      0.99696119
   2900000  -1283.404       222.02775     -1505.4317      292.10082      283.2401       3840.7412      0.99696119
   2901000  -1291.4897      209.50717     -1500.9968      275.62868     -665.10295      3840.7412      0.99696119
   2902000  -1301.3695      226.74148     -1528.111       298.30222     -507.41707      3840.7412      0.99696119
   2903000  -1319.3158      201.27307     -1520.5889      264.79586      1199.972       3840.7412      0.99696119
   2904000  -1266.6451      230.7829      -1497.428       303.61915      101.29903      3840.7412      0.99696119
   2905000  -1261.2131      220.38235     -1481.5954      289.93612     -328.71643      3840.7412      0.99696119
   2906000  -1237.9919      242.82531     -1480.8173      319.46219     -53.87239       3840.7412      0.99696119
   2907000  -1258.1174      227.03122     -1485.1486      298.68341      298.4631       3840.7412      0.99696119
   2908000  -1261.7587      236.90269     -1498.6614      311.67036      572.74625      3840.7412      0.99696119
   2909000  -1263.4358      241.68512     -1505.1209      317.96215      716.80014      3840.7412      0.99696119
   2910000  -1288.4478      242.86098     -1531.3088      319.50913     -457.83541      3840.7412      0.99696119
   2911000  -1261.7125      238.48987     -1500.2023      313.75847     -1740.2124      3840.7412      0.99696119
   2912000  -1284.2059      203.48955     -1487.6954      267.71188      215.68533      3840.7412      0.99696119
   2913000  -1285.0366      216.90761     -1501.9442      285.36474     -533.7371       3840.7412      0.99696119
   2914000  -1273.5842      241.09803     -1514.6822      317.18978     -1264.0048      3840.7412      0.99696119
   2915000  -1288.0041      192.61369     -1480.6178      253.40353     -1168.3661      3840.7412      0.99696119
   2916000  -1253.2822      224.01625     -1477.2985      294.7169      -903.4342       3840.7412      0.99696119
   2917000  -1288.4971      212.7241      -1501.2212      279.86089     -887.25845      3840.7412      0.99696119
   2918000  -1271.3941      245.57453     -1516.9687      323.07907      122.5492       3840.7412      0.99696119
   2919000  -1296.0007      218.23714     -1514.2379      287.11388      1257.7827      3840.7412      0.99696119
   2920000  -1272.9959      246.07117     -1519.0671      323.73247      2035.5317      3840.7412      0.99696119
   2921000  -1250.3845      218.54397     -1468.9285      287.51754     -138.96596      3840.7412      0.99696119
   2922000  -1265.5586      233.51493     -1499.0735      307.21341     -36.032788      3840.7412      0.99696119
   2923000  -1295.9474      231.35614     -1527.3036      304.37329     -86.067484      3840.7412      0.99696119
   2924000  -1217.9549      243.00476     -1460.9596      319.69828      1356.4914      3840.7412      0.99696119
   2925000  -1266.582       222.60893     -1489.1909      292.86542     -46.270797      3840.7412      0.99696119
   2926000  -1255.6278      216.05231     -1471.6801      284.2395       637.61138      3840.7412      0.99696119
   2927000  -1237.7062      238.07445     -1475.7807      313.21194     -545.38709      3840.7412      0.99696119
   2928000  -1251.7401      224.73372     -1476.4738      295.66081      923.10833      3840.7412      0.99696119
   2929000  -1267.1907      227.43519     -1494.6258      299.21488      2132.7183      3840.7412      0.99696119
   2930000  -1227.6124      241.82211     -1469.4345      318.14237      88.502388      3840.7412      0.99696119
   2931000  -1277.7161      226.63047     -1504.3466      298.15618     -1287.4208      3840.7412      0.99696119
   2932000  -1291.7947      206.31662     -1498.1113      271.43118      2000.9441      3840.7412      0.99696119
   2933000  -1255.1394      242.71947     -1497.8589      319.32295      144.36324      3840.7412      0.99696119
   2934000  -1246.5964      240.68933     -1487.2857      316.65209     -308.23832      3840.7412      0.99696119
   2935000  -1274.7071      221.04753     -1495.7546      290.81123     -275.28575      3840.7412      0.99696119
   2936000  -1249.9606      252.02588     -1501.9865      331.5665      -575.56311      3840.7412      0.99696119
   2937000  -1237.2581      241.68462     -1478.9427      317.96149      17.471914      3840.7412      0.99696119
   2938000  -1267.5886      238.88423     -1506.4728      314.27729      1545.2269      3840.7412      0.99696119
   2939000  -1251.4467      241.2342      -1492.6809      317.36892      1759.2327      3840.7412      0.99696119
   2940000  -1290.8498      218.12314     -1508.9729      286.96389      447.24033      3840.7412      0.99696119
   2941000  -1294.4089      197.80373     -1492.2127      260.23158     -1234.7706      3840.7412      0.99696119
   2942000  -1273.034       222.08513     -1495.1192      292.17631      809.10148      3840.7412      0.99696119
   2943000  -1245.3409      211.12135     -1456.4623      277.75231     -112.33528      3840.7412      0.99696119
   2944000  -1255.018       223.03049     -1478.0485      293.42003     -241.70159      3840.7412      0.99696119
   2945000  -1264.585       221.34866     -1485.9337      291.2074      -420.28153      3840.7412      0.99696119
   2946000  -1263.0267      238.13905     -1501.1657      313.29693      771.88503      3840.7412      0.99696119
   2947000  -1257.9077      231.87436     -1489.7821      305.05508     -358.88023      3840.7412      0.99696119
   2948000  -1253.7869      243.91761     -1497.7045      320.89922      370.17944      3840.7412      0.99696119
   2949000  -1311.1815      213.75865     -1524.9402      281.22195     -441.44912      3840.7412      0.99696119
   2950000  -1274.2828      214.27826     -1488.561       281.90556     -1635.8711      3840.7412      0.99696119
   2951000  -1263.5706      206.04643     -1469.6171      271.07572      169.3771       3840.7412      0.99696119
   2952000  -1315.607       209.4017      -1525.0087      275.48993     -618.67397      3840.7412      0.99696119
   2953000  -1284.0548      215.42991     -1499.4848      283.42067     -467.78781      3840.7412      0.99696119
   2954000  -1268.3703      233.13008     -1501.5004      306.70709      1175.2973      3840.7412      0.99696119
   2955000  -1227.8278      244.51832     -1472.3461      321.68952     -969.44823      3840.7412      0.99696119
   2956000  -1247.8003      234.42965     -1482.23        308.41682     -81.015669      3840.7412      0.99696119
   2957000  -1283.6603      222.71058     -1506.3708      292.99916      338.3596       3840.7412      0.99696119
   2958000  -1265.9121      221.45884     -1487.3709      291.35236      609.14943      3840.7412      0.99696119
   2959000  -1292.3983      215.51791     -1507.9162      283.53645     -854.14625      3840.7412      0.99696119
   2960000  -1277.3357      222.73499     -1500.0707      293.03127      1104.7198      3840.7412      0.99696119
   2961000  -1283.8359      228.09444     -1511.9303      300.08219      708.13621      3840.7412      0.99696119
   2962000  -1267.1153      239.05914     -1506.1745      314.5074       156.84864      3840.7412      0.99696119
   2963000  -1296.9572      219.7217      -1516.6789      289.06697     -109.46569      3840.7412      0.99696119
   2964000  -1251.989       236.91382     -1488.9028      311.68501     -499.32167      3840.7412      0.99696119
   2965000  -1282.7364      208.45095     -1491.1873      274.23911     -2669.4916      3840.7412      0.99696119
   2966000  -1265.3081      230.55946     -1495.8676      303.32519      1422.2102      3840.7412      0.99696119
   2967000  -1268.1146      217.04193     -1485.1566      285.54145      2658.5738      3840.7412      0.99696119
   2968000  -1234.5717      231.51904     -1466.0907      304.58761      1466.3317      3840.7412      0.99696119
   2969000  -1294.5395      215.03163     -1509.5711      282.89669     -947.95809      3840.7412      0.99696119
   2970000  -1291.3849      233.31752     -1524.7024      306.9537      -1228.7892      3840.7412      0.99696119
   2971000  -1246.2005      243.35107     -1489.5516      320.15389      460.36084      3840.7412      0.99696119
   2972000  -1255.6623      232.62309     -1488.2853      306.0401       203.38893      3840.7412      0.99696119
   2973000  -1256.8307      217.63892     -1474.4696      286.32685      84.261286      3840.7412      0.99696119
   2974000  -1256.2531      220.97213     -1477.2253      290.71204      137.06028      3840.7412      0.99696119
   2975000  -1290.3338      221.63786     -1511.9717      291.58788      2058.0945      3840.7412      0.99696119
   2976000  -1258.7406      231.56685     -1490.3075      304.6505       892.81333      3840.7412      0.99696119
   2977000  -1258.5145      230.1531      -1488.6676      302.79056      608.64687      3840.7412      0.99696119
   2978000  -1295.0811      221.68931     -1516.7704      291.65557     -773.61515      3840.7412      0.99696119
   2979000  -1254.0297      226.81558     -1480.8453      298.39971      1635.5346      3840.7412      0.99696119
   2980000  -1283.9994      227.43672     -1511.4361      299.21689     -1067.3086      3840.7412      0.99696119
   2981000  -1260.5655      232.53263     -1493.0982      305.92109     -1268.2728      3840.7412      0.99696119
   2982000  -1268.1027      224.18899     -1492.2917      294.94416      994.6898       3840.7412      0.99696119
   2983000  -1295.4819      223.21139     -1518.6933      293.65802      188.54617      3840.7412      0.99696119
   2984000  -1261.4563      229.19733     -1490.6537      301.53315      44.910607      3840.7412      0.99696119
   2985000  -1260.3006      215.4731      -1475.7737      283.47748     -154.3568       3840.7412      0.99696119
   2986000  -1264.9473      232.62916     -1497.5764      306.04808     -1064.2414      3840.7412      0.99696119
   2987000  -1263.4127      234.95306     -1498.3657      309.10542      683.01481      3840.7412      0.99696119
   2988000  -1243.3006      234.43221     -1477.7328      308.42019     -568.29173      3840.7412      0.99696119
   2989000  -1312.782       196.91005     -1509.692       259.05584     -137.48026      3840.7412      0.99696119
   2990000  -1258.3411      224.24244     -1482.5836      295.01448      400.90867      3840.7412      0.99696119
   2991000  -1257.8323      212.05102     -1469.8833      278.97538     -565.6579       3840.7412      0.99696119
   2992000  -1280.4869      223.56773     -1504.0546      294.12683     -1570.579       3840.7412      0.99696119
   2993000  -1293.1909      214.14812     -1507.339       281.73434      743.05904      3840.7412      0.99696119
   2994000  -1248.9233      233.34689     -1482.2702      306.99234      1641.6894      3840.7412      0.99696119
   2995000  -1264.4322      217.48771     -1481.9199      286.12792     -46.855314      3840.7412      0.99696119
   2996000  -1241.3535      228.28536     -1469.6388      300.33336     -46.154202      3840.7412      0.99696119
   2997000  -1263.7325      216.41173     -1480.1442      284.71236     -359.62228      3840.7412      0.99696119
   2998000  -1270.1725      216.02251     -1486.195       284.2003       689.51085      3840.7412      0.99696119
   2999000  -1312.0286      234.1586      -1546.1872      308.06023     -123.79788      3840.7412      0.99696119
   3000000  -1271.0788      229.79469     -1500.8734      302.31904     -501.4471       3840.7412      0.99696119
Loop time of 2355.66 on 2 procs for 2000000 steps with 384 atoms

Performance: 73.355 ns/day, 0.327 hours/ns, 849.021 timesteps/s
99.6% CPU use with 2 MPI tasks x 1 OpenMP threads

MPI task timing breakdown:
Section |  min time  |  avg time  |  max time  |%varavg| %total
---------------------------------------------------------------
Pair    | 1523.9     | 1532       | 1540.1     |  20.7 | 65.04
Bond    | 0.15615    | 0.17003    | 0.18392    |   3.4 |  0.01
Kspace  | 436.61     | 443.1      | 449.58     |  30.8 | 18.81
Neigh   | 109.01     | 109.01     | 109.01     |   0.0 |  4.63
Comm    | 156.02     | 157.87     | 159.72     |  14.7 |  6.70
Output  | 0.52644    | 0.56056    | 0.59468    |   4.6 |  0.02
Modify  | 106.73     | 106.95     | 107.16     |   2.1 |  4.54
Other   |            | 6.004      |            |       |  0.25

Nlocal:            192 ave         195 max         189 min
Histogram: 1 0 0 0 0 0 0 0 0 1
Nghost:           4867 ave        4873 max        4861 min
Histogram: 1 0 0 0 0 0 0 0 0 1
Neighs:        69361.5 ave       70386 max       68337 min
Histogram: 1 0 0 0 0 0 0 0 0 1

Total # of neighbors = 138723
Ave neighs/atom = 361.25781
Ave special neighs/atom = 2
Neighbor list builds = 67804
Dangerous builds = 0

# write data file
write_data data.after_prod.lmp
System init for write_data ...
PPPM initialization ...
  using 12-bit tables for long-range coulomb (src/kspace.cpp:342)
  G vector (1/distance) = 0.31203871
  grid = 15 15 15
  stencil order = 5
  estimated absolute RMS force accuracy = 0.0022228175
  estimated relative force accuracy = 6.6939488e-06
  using double precision FFTW3
  3d grid and FFT values/proc = 6776 1800
Generated 1 of 1 mixed pair_coeff terms from geometric mixing rule

# clean up
undump dPROD
unfix fTHERMO
unfix fMOM
unfix fSHAKE
Total wall time: 0:58:52
