LAMMPS (23 Jun 2022 - Update 4)
  using 1 OpenMP thread(s) per MPI task
# created by fftool

# System settings
units real
boundary p p p  # Periodic boundary conditions

# definition of atoms, bonds, angles
atom_style full
bond_style harmonic
angle_style harmonic

# definition of pair potentials
special_bonds lj/coul 0.0 0.0 0.5
pair_style lj/cut/coul/long 10.0 10.0
pair_modify mix geometric tail yes
kspace_style pppm 1.0e-5

# read data file
read_data data.lmp
Reading data file ...
  orthogonal box = (0 0 0) to (12.42973 12.42973 12.42973)
  1 by 1 by 1 MPI processor grid
  reading atoms ...
  192 atoms
  scanning bonds ...
  1 = max bonds/atom
  scanning angles ...
  1 = max angles/atom
  reading bonds ...
  128 bonds
  reading angles ...
  64 angles
Finding 1-2 1-3 1-4 neighbors ...
  special bond factors lj:    0        0        0.5
  special bond factors coul:  0        0        0.5
     2 = max # of 1-2 neighbors
     1 = max # of 1-3 neighbors
     1 = max # of 1-4 neighbors
     2 = max # of special neighbors
  special bonds CPU = 0.000 seconds
  read_data CPU = 0.005 seconds

# definition of LJ parameters
pair_coeff    1    1     0.000000     0.000000  # Hw Hw
pair_coeff    2    2     0.163315     3.168823  # Ow-Ow

############################################

# remove energy hotspots
minimize 1.0e-4 1.0e-6 100 1000
WARNING: Using 'neigh_modify every 1 delay 0 check yes' setting during minimization (src/min.cpp:187)
PPPM initialization ...
  using 12-bit tables for long-range coulomb (src/kspace.cpp:342)
  G vector (1/distance) = 0.31260513
  grid = 12 12 12
  stencil order = 5
  estimated absolute RMS force accuracy = 0.0021455329
  estimated relative force accuracy = 6.4612085e-06
  using double precision FFTW3
  3d grid and FFT values/proc = 6859 1728
Generated 1 of 1 mixed pair_coeff terms from geometric mixing rule
Neighbor list info ...
  update every 1 steps, delay 0 steps, check yes
  max neighbors/atom: 2000, page size: 100000
  master list distance cutoff = 12
  ghost atom cutoff = 12
  binsize = 6, bins = 3 3 3
  1 neighbor lists, perpetual/occasional/extra = 1 0 0
  (1) pair lj/cut/coul/long, perpetual
      attributes: half, newton on
      pair build: half/bin/newton
      stencil: half/bin/3d
      bin: standard
Per MPI rank memory allocation (min/avg/max) = 8.743 | 8.743 | 8.743 Mbytes
   Step          Temp          E_pair         E_mol          TotEng         Press
         0   0              176438.79      2.4014708e-07  176438.79      25273842
       100   0             -950.31314      74.578231     -875.73491     -6201.3411
Loop time of 0.212876 on 1 procs for 100 steps with 192 atoms

99.6% CPU use with 1 MPI tasks x 1 OpenMP threads

Minimization stats:
  Stopping criterion = max iterations
  Energy initial, next-to-last, final =
      176438.794318238  -874.920239244017  -875.734910249635
  Force two-norm initial, final = 1322222.6 18.551346
  Force max component initial, final = 729542.32 3.2141011
  Final line search alpha, max atom move = 0.0029961451 0.0096299132
  Iterations, force evaluations = 100 179

MPI task timing breakdown:
Section |  min time  |  avg time  |  max time  |%varavg| %total
---------------------------------------------------------------
Pair    | 0.18184    | 0.18184    | 0.18184    |   0.0 | 85.42
Bond    | 0.00069505 | 0.00069505 | 0.00069505 |   0.0 |  0.33
Kspace  | 0.021823   | 0.021823   | 0.021823   |   0.0 | 10.25
Neigh   | 0.0050039  | 0.0050039  | 0.0050039  |   0.0 |  2.35
Comm    | 0.0025641  | 0.0025641  | 0.0025641  |   0.0 |  1.20
Output  | 1.0349e-05 | 1.0349e-05 | 1.0349e-05 |   0.0 |  0.00
Modify  | 0          | 0          | 0          |   0.0 |  0.00
Other   |            | 0.0009429  |            |       |  0.44

Nlocal:            192 ave         192 max         192 min
Histogram: 1 0 0 0 0 0 0 0 0 0
Nghost:           4788 ave        4788 max        4788 min
Histogram: 1 0 0 0 0 0 0 0 0 0
Neighs:          69116 ave       69116 max       69116 min
Histogram: 1 0 0 0 0 0 0 0 0 0

Total # of neighbors = 69116
Ave neighs/atom = 359.97917
Ave special neighs/atom = 2
Neighbor list builds = 4
Dangerous builds = 0
reset_timestep 0

# constrain water bonds and angles
fix fSHAKE all shake 0.0001 20 0 b 1 a 1
       0 = # of size 2 clusters
       0 = # of size 3 clusters
       0 = # of size 4 clusters
      64 = # of frozen angles
  find clusters CPU = 0.000 seconds

# remove Center of Mass movement every 100 steps
fix fMOM all momentum 100 linear 1 1 1

# define the neighbor list
neighbor 2.0 bin

# IMPORTANT: timestep and temperature and pressure
timestep 1.0
variable vTK equal 298.15
variable vPBAR equal 1.0

# randomize velocities
velocity all create ${vTK} 45338
velocity all create 298.15 45338

# thermostat (solving the ODE)
fix fTHERMO all nvt temp ${vTK} ${vTK} 100
fix fTHERMO all nvt temp 298.15 ${vTK} 100
fix fTHERMO all nvt temp 298.15 298.15 100

# print settings
thermo 1000
thermo_style custom step etotal ke pe temp press vol density
# trajectory output
dump dEQUI all custom 1000 equi.lammpstrj id element xu yu zu
dump_modify dEQUI element H O sort id

# equilibration
# 1 ns
run 1000000
PPPM initialization ...
  using 12-bit tables for long-range coulomb (src/kspace.cpp:342)
  G vector (1/distance) = 0.31260513
  grid = 12 12 12
  stencil order = 5
  estimated absolute RMS force accuracy = 0.0021455329
  estimated relative force accuracy = 6.4612085e-06
  using double precision FFTW3
  3d grid and FFT values/proc = 6859 1728
Generated 1 of 1 mixed pair_coeff terms from geometric mixing rule
Per MPI rank memory allocation (min/avg/max) = 9.76 | 9.76 | 9.76 Mbytes
   Step         TotEng         KinEng         PotEng          Temp          Press          Volume        Density
         0  -837.44462      112.86852     -950.31314      298.15         6753.3606      1920.3708      0.9969611
      1000  -620.71624      119.89132     -740.60756      316.70121      2564.8893      1920.3708      0.9969611
      2000  -628.32321      118.60116     -746.92437      313.29316     -570.08527      1920.3708      0.9969611
      3000  -637.29045      123.03379     -760.32424      325.00226      770.75709      1920.3708      0.9969611
      4000  -669.7099       106.24829     -775.95819      280.6622      -1942.7575      1920.3708      0.9969611
      5000  -646.28796      111.58506     -757.87302      294.75965     -2715.2362      1920.3708      0.9969611
      6000  -642.49335      108.97603     -751.46937      287.8677      -253.88092      1920.3708      0.9969611
      7000  -651.80991      120.39843     -772.20834      318.04077     -910.34868      1920.3708      0.9969611
      8000  -636.59929      106.95411     -743.5534       282.52668     -2247.3154      1920.3708      0.9969611
      9000  -655.60598      106.57254     -762.17851      281.51873     -2531.5382      1920.3708      0.9969611
     10000  -639.12315      122.39314     -761.5163       323.30995      1988.4591      1920.3708      0.9969611
     11000  -655.94686      108.76391     -764.71077      287.30739     -2163.8968      1920.3708      0.9969611
     12000  -646.89326      116.98154     -763.8748       309.01483     -768.03813      1920.3708      0.9969611
     13000  -672.79231      107.56561     -780.35792      284.14198     -1771.4491      1920.3708      0.9969611
     14000  -638.11055      111.79874     -749.90929      295.3241       680.40579      1920.3708      0.9969611
     15000  -651.51803      105.76508     -757.28312      279.38577      3312.5054      1920.3708      0.9969611
     16000  -651.75883      108.4979      -760.25673      286.60471     -1659.6481      1920.3708      0.9969611
     17000  -645.0057       116.13409     -761.13979      306.77623     -2343.4614      1920.3708      0.9969611
     18000  -654.86677      107.37078     -762.23756      283.62734     -310.24212      1920.3708      0.9969611
     19000  -649.90393      121.06078     -770.96471      319.79042      554.97311      1920.3708      0.9969611
     20000  -665.57891      119.23801     -784.81692      314.97545     -33.67012       1920.3708      0.9969611
     21000  -669.3907       110.86253     -780.25323      292.85104     -390.28322      1920.3708      0.9969611
     22000  -638.96266      105.11528     -744.07794      277.66929      792.80325      1920.3708      0.9969611
     23000  -627.3816       121.91704     -749.29864      322.05227     -1225.2281      1920.3708      0.9969611
     24000  -645.47065      103.02122     -748.49187      272.13768     -71.30997       1920.3708      0.9969611
     25000  -605.98809      113.47416     -719.46225      299.74984     -160.14143      1920.3708      0.9969611
     26000  -603.78359      141.82505     -745.60864      374.64067      2433.8546      1920.3708      0.9969611
     27000  -628.11918      124.09337     -752.21256      327.80123     -1955.3244      1920.3708      0.9969611
     28000  -655.34835      104.89676     -760.24511      277.09205      1122.7763      1920.3708      0.9969611
     29000  -662.89988      93.369557     -756.26944      246.64214      2516.8405      1920.3708      0.9969611
     30000  -629.84359      114.22543     -744.06902      301.73436     -2051.6655      1920.3708      0.9969611
     31000  -654.16661      111.68565     -765.85226      295.02536      492.22225      1920.3708      0.9969611
     32000  -639.69956      108.08082     -747.78038      285.50296      385.30627      1920.3708      0.9969611
     33000  -639.32128      113.44644     -752.76772      299.67662     -365.47872      1920.3708      0.9969611
     34000  -639.03833      111.21186     -750.25019      293.77381     -0.14847444     1920.3708      0.9969611
     35000  -655.10349      114.92288     -770.02637      303.57673      1123.3171      1920.3708      0.9969611
     36000  -627.88837      110.06945     -737.95782      290.75605     -1188.3159      1920.3708      0.9969611
     37000  -679.24162      103.56371     -782.80532      273.57069      1653.423       1920.3708      0.9969611
     38000  -638.33816      117.09215     -755.43031      309.30701      1426.0429      1920.3708      0.9969611
     39000  -648.91424      106.29515     -755.2094       280.78599      956.69085      1920.3708      0.9969611
     40000  -631.85831      122.02613     -753.88444      322.34046     -966.66223      1920.3708      0.9969611
     41000  -666.56819      107.59432     -774.16251      284.21782      839.10262      1920.3708      0.9969611
     42000  -650.4475       106.43725     -756.88475      281.16136     -1980.7274      1920.3708      0.9969611
     43000  -655.65552      115.13065     -770.78617      304.12558     -498.87189      1920.3708      0.9969611
     44000  -673.90537      109.11203     -783.0174       288.22698      2154.1867      1920.3708      0.9969611
     45000  -651.39886      112.55144     -763.95031      297.31242      521.04084      1920.3708      0.9969611
     46000  -649.57509      108.79186     -758.36695      287.38122      2102.1622      1920.3708      0.9969611
     47000  -659.71987      104.14042     -763.86029      275.09412     -204.0572       1920.3708      0.9969611
     48000  -657.9844       108.91904     -766.90344      287.71716      278.49901      1920.3708      0.9969611
     49000  -664.61861      108.27302     -772.89163      286.01066     -753.83658      1920.3708      0.9969611
     50000  -656.95458      121.57707     -778.53165      321.15422      689.17551      1920.3708      0.9969611
     51000  -663.96779      110.061       -774.02878      290.73373      1498.6312      1920.3708      0.9969611
     52000  -629.96516      113.58679     -743.55194      300.04735     -1835.7717      1920.3708      0.9969611
     53000  -650.2185       110.82931     -761.04781      292.76328      533.15771      1920.3708      0.9969611
     54000  -655.39604      103.78116     -759.17721      274.14511     -2416.4205      1920.3708      0.9969611
     55000  -639.33762      111.44573     -750.78336      294.39161      581.92523      1920.3708      0.9969611
     56000  -656.85779      113.09919     -769.95698      298.75933      1294.4279      1920.3708      0.9969611
     57000  -623.78022      111.87146     -735.65168      295.51619      285.70882      1920.3708      0.9969611
     58000  -641.20915      108.639       -749.84816      286.97743     -698.74459      1920.3708      0.9969611
     59000  -663.85741      113.69111     -777.54852      300.32292      673.91895      1920.3708      0.9969611
     60000  -637.55514      114.56746     -752.1226       302.63787     -1257.0509      1920.3708      0.9969611
     61000  -601.37458      126.41145     -727.78602      333.92457     -1870.809       1920.3708      0.9969611
     62000  -637.10277      106.91783     -744.02059      282.43083      451.56235      1920.3708      0.9969611
     63000  -649.74111      109.568       -759.3091       289.43144     -1049.9495      1920.3708      0.9969611
     64000  -652.03288      110.12958     -762.16246      290.91489      2110.5992      1920.3708      0.9969611
     65000  -648.2025       120.4823      -768.6848       318.26232      1384.9254      1920.3708      0.9969611
     66000  -652.11224      114.47715     -766.58939      302.3993      -2346.9661      1920.3708      0.9969611
     67000  -641.89541      111.69603     -753.59144      295.05278     -3763.07        1920.3708      0.9969611
     68000  -664.52454      107.46127     -771.98581      283.86638     -1560.2674      1920.3708      0.9969611
     69000  -667.58425      110.35674     -777.941        291.51497     -2102.5865      1920.3708      0.9969611
     70000  -638.94322      111.19926     -750.14248      293.74052      2858.855       1920.3708      0.9969611
     71000  -660.35357      119.71994     -780.07351      316.24849      2411.9287      1920.3708      0.9969611
     72000  -611.45424      126.2348      -737.68904      333.45796     -2480.4638      1920.3708      0.9969611
     73000  -670.67051      109.77638     -780.4469       289.9819       2315.906       1920.3708      0.9969611
     74000  -643.75105      114.12742     -757.87847      301.47546     -178.56292      1920.3708      0.9969611
     75000  -657.38558      103.06126     -760.44684      272.24344      937.03998      1920.3708      0.9969611
     76000  -667.52557      110.23765     -777.76322      291.20036     -863.16589      1920.3708      0.9969611
     77000  -670.9129       101.33697     -772.24987      267.68862      2383.9019      1920.3708      0.9969611
     78000  -652.35417      103.28357     -755.63774      272.8307       1514.9977      1920.3708      0.9969611
     79000  -650.90095      107.16994     -758.07089      283.0968      -2731.7498      1920.3708      0.9969611
     80000  -651.98424      118.56486     -770.5491       313.19726     -351.13307      1920.3708      0.9969611
     81000  -643.52593      118.60783     -762.13376      313.31078      288.80168      1920.3708      0.9969611
     82000  -640.28251      113.33474     -753.61725      299.38154      259.6177       1920.3708      0.9969611
     83000  -668.36362      102.26509     -770.62871      270.14031     -723.91564      1920.3708      0.9969611
     84000  -638.95827      108.06827     -747.02653      285.46979     -588.14288      1920.3708      0.9969611
     85000  -660.441        103.74094     -764.18194      274.03885      1043.2483      1920.3708      0.9969611
     86000  -664.68665      100.34598     -765.03263      265.07083     -2463.9779      1920.3708      0.9969611
     87000  -664.86178      106.69197     -771.55375      281.83421      3186.9143      1920.3708      0.9969611
     88000  -635.96848      111.19999     -747.16847      293.74246      734.78933      1920.3708      0.9969611
     89000  -660.93887      114.14674     -775.08562      301.52651     -1515.333       1920.3708      0.9969611
     90000  -638.40319      123.00608     -761.40927      324.92906     -2525.7498      1920.3708      0.9969611
     91000  -652.59434      108.46482     -761.05915      286.51731     -2008.7016      1920.3708      0.9969611
     92000  -655.7187       106.04014     -761.75884      280.11237      1166.6122      1920.3708      0.9969611
     93000  -625.44529      130.76141     -756.2067       345.41531      1494.1779      1920.3708      0.9969611
     94000  -639.99445      111.65234     -751.64679      294.93736     -13.10151       1920.3708      0.9969611
     95000  -672.49668      103.2596      -775.75628      272.76737     -2922.2748      1920.3708      0.9969611
     96000  -598.87329      133.94039     -732.81368      353.81279      11.961452      1920.3708      0.9969611
     97000  -632.88567      114.05925     -746.94492      301.2954      -12.209886      1920.3708      0.9969611
     98000  -644.08925      120.46788     -764.55713      318.22423     -541.75477      1920.3708      0.9969611
     99000  -634.87649      112.01907     -746.89556      295.90613      1885.9876      1920.3708      0.9969611
    100000  -667.35832      106.30971     -773.66803      280.82444      2088.2464      1920.3708      0.9969611
    101000  -640.04806      111.88629     -751.93435      295.55536     -710.50281      1920.3708      0.9969611
    102000  -647.36758      112.42821     -759.79579      296.9869       733.24225      1920.3708      0.9969611
    103000  -669.73211      101.36973     -771.10184      267.77514     -786.73944      1920.3708      0.9969611
    104000  -651.88431      103.5138      -755.39811      273.43884      1143.3783      1920.3708      0.9969611
    105000  -642.02409      130.96545     -772.98953      345.95428      115.05072      1920.3708      0.9969611
    106000  -617.79732      124.0967      -741.89403      327.81002     -3388.7546      1920.3708      0.9969611
    107000  -650.67682      101.26735     -751.94417      267.5047      -560.68338      1920.3708      0.9969611
    108000  -613.01859      116.74582     -729.76441      308.39215     -546.12242      1920.3708      0.9969611
    109000  -638.3988       109.14369     -747.54249      288.31061     -1588.514       1920.3708      0.9969611
    110000  -650.719        113.46789     -764.18689      299.73327      246.90725      1920.3708      0.9969611
    111000  -646.9946       112.30606     -759.30066      296.66422      3174.1491      1920.3708      0.9969611
    112000  -652.55962      115.71112     -768.27073      305.65891      3493.6678      1920.3708      0.9969611
    113000  -634.83693      122.60236     -757.43929      323.8626       708.92954      1920.3708      0.9969611
    114000  -655.77043      112.7392      -768.50964      297.8084      -2137.4805      1920.3708      0.9969611
    115000  -648.78244      109.88134     -758.66379      290.25917     -659.38653      1920.3708      0.9969611
    116000  -665.15273      109.24781     -774.40055      288.58565     -455.84193      1920.3708      0.9969611
    117000  -676.03333      101.9248      -777.95813      269.24141     -2329.9622      1920.3708      0.9969611
    118000  -658.51442      108.97752     -767.49193      287.87164      115.12491      1920.3708      0.9969611
    119000  -662.96655      108.45103     -771.41758      286.48089      3334.0383      1920.3708      0.9969611
    120000  -641.21623      123.92909     -765.14532      327.36726      117.64046      1920.3708      0.9969611
    121000  -652.38074      109.84245     -762.22319      290.15641      3430.8117      1920.3708      0.9969611
    122000  -680.5354       105.66313     -786.19852      279.11645      930.81269      1920.3708      0.9969611
    123000  -633.18724      124.21994     -757.40719      328.13556     -1412.9818      1920.3708      0.9969611
    124000  -622.88031      110.95924     -733.83955      293.10651      355.34203      1920.3708      0.9969611
    125000  -648.34757      107.9718      -756.31936      285.21496     -289.86345      1920.3708      0.9969611
    126000  -614.00047      120.14578     -734.14626      317.37339     -4045.8575      1920.3708      0.9969611
    127000  -646.23576      112.31546     -758.55122      296.68904      1083.9023      1920.3708      0.9969611
    128000  -661.54959      110.18201     -771.7316       291.05339     -2015.5986      1920.3708      0.9969611
    129000  -656.45328      104.29844     -760.75171      275.51153     -542.48144      1920.3708      0.9969611
    130000  -655.76333      114.99959     -770.76293      303.77937      981.89433      1920.3708      0.9969611
    131000  -664.87564      106.30223     -771.17786      280.80468      2910.6167      1920.3708      0.9969611
    132000  -646.41789      108.31936     -754.73725      286.13308     -2156.2102      1920.3708      0.9969611
    133000  -622.42695      115.27586     -737.7028       304.50914     -2309.5525      1920.3708      0.9969611
    134000  -621.54903      129.69404     -751.24307      342.59577     -3119.0187      1920.3708      0.9969611
    135000  -642.95688      117.09929     -760.05617      309.32588      185.12138      1920.3708      0.9969611
    136000  -664.34911      96.930757     -761.27986      256.04929     -331.83648      1920.3708      0.9969611
    137000  -638.83981      123.30077     -762.14058      325.70752     -387.77629      1920.3708      0.9969611
    138000  -652.39477      106.94272     -759.33749      282.4966      -1117.2964      1920.3708      0.9969611
    139000  -641.77409      110.38723     -752.16132      291.59549     -641.4513       1920.3708      0.9969611
    140000  -663.39112      107.21757     -770.60869      283.22263      5348.6546      1920.3708      0.9969611
    141000  -665.60055      104.88991     -770.49046      277.07394      1266.3966      1920.3708      0.9969611
    142000  -638.60188      105.07887     -743.68075      277.5731      -1530.9589      1920.3708      0.9969611
    143000  -625.44167      122.16301     -747.60468      322.70204      220.46232      1920.3708      0.9969611
    144000  -617.59056      111.37026     -728.96082      294.19224     -1164.735       1920.3708      0.9969611
    145000  -643.18032      108.07158     -751.2519       285.47855     -1431.3554      1920.3708      0.9969611
    146000  -650.58672      104.75571     -755.34243      276.71944      764.76851      1920.3708      0.9969611
    147000  -620.76794      130.9091      -751.67704      345.80544      2267.7004      1920.3708      0.9969611
    148000  -647.86726      116.79984     -764.6671       308.53485      626.74622      1920.3708      0.9969611
    149000  -656.21353      107.10707     -763.3206       282.93072     -3164.6179      1920.3708      0.9969611
    150000  -667.7601       113.94703     -781.70714      300.99897     -1697.4712      1920.3708      0.9969611
    151000  -687.98336      105.11737     -793.10073      277.67479     -912.88151      1920.3708      0.9969611
    152000  -649.91312      122.40137     -772.31448      323.33167     -1454.6341      1920.3708      0.9969611
    153000  -642.481        110.44246     -752.92345      291.74138     -1783.0303      1920.3708      0.9969611
    154000  -640.44636      121.44015     -761.88651      320.79255      833.80003      1920.3708      0.9969611
    155000  -656.04317      116.49735     -772.54052      307.73579     -1819.576       1920.3708      0.9969611
    156000  -653.14224      114.60143     -767.74367      302.7276      -172.32808      1920.3708      0.9969611
    157000  -667.51871      114.89437     -782.41309      303.50143      831.06336      1920.3708      0.9969611
    158000  -663.20802      117.14886     -780.35688      309.4568      -1367.7315      1920.3708      0.9969611
    159000  -660.29371      115.02857     -775.32229      303.85592     -918.83163      1920.3708      0.9969611
    160000  -651.76678      110.51679     -762.28357      291.93774      549.20492      1920.3708      0.9969611
    161000  -647.01361      108.77958     -755.79319      287.34879      1147.3299      1920.3708      0.9969611
    162000  -635.17008      115.31304     -750.48312      304.60736     -1233.7902      1920.3708      0.9969611
    163000  -624.49036      124.23196     -748.72232      328.16731     -130.90823      1920.3708      0.9969611
    164000  -649.57797      101.39702     -750.97499      267.84725      1376.5712      1920.3708      0.9969611
    165000  -653.17963      114.33311     -767.51274      302.01881      1127.9585      1920.3708      0.9969611
    166000  -651.34803      106.07877     -757.42681      280.21441     -2595.7747      1920.3708      0.9969611
    167000  -627.11061      116.02167     -743.13228      306.47926     -749.27934      1920.3708      0.9969611
    168000  -666.94434      117.66295     -784.6073       310.81482     -727.82372      1920.3708      0.9969611
    169000  -671.57128      105.79361     -777.36489      279.46113      1594.8806      1920.3708      0.9969611
    170000  -636.9363       120.91737     -757.85367      319.4116      -1737.316       1920.3708      0.9969611
    171000  -659.01731      112.47586     -771.49317      297.11277     -523.59408      1920.3708      0.9969611
    172000  -635.77984      119.46929     -755.24914      315.58639     -598.01721      1920.3708      0.9969611
    173000  -651.7588       103.09818     -754.85698      272.34096     -81.545734      1920.3708      0.9969611
    174000  -634.17405      118.28824     -752.46229      312.46656     -1272.1201      1920.3708      0.9969611
    175000  -647.49464      110.31547     -757.81011      291.40594      270.77926      1920.3708      0.9969611
    176000  -614.80256      115.04391     -729.84647      303.89644      126.00737      1920.3708      0.9969611
    177000  -651.48532      108.43522     -759.92054      286.43913     -726.5195       1920.3708      0.9969611
    178000  -631.63241      104.34283     -735.97524      275.6288      -1461.4991      1920.3708      0.9969611
    179000  -641.73521      119.57229     -761.3075       315.85846     -389.6036       1920.3708      0.9969611
    180000  -641.95274      121.90806     -763.8608       322.02856     -205.53985      1920.3708      0.9969611
    181000  -657.63966      103.18577     -760.82543      272.57235      756.90303      1920.3708      0.9969611
    182000  -665.63449      103.81138     -769.44586      274.22493      2321.4219      1920.3708      0.9969611
    183000  -659.82725      106.12937     -765.95662      280.34808      146.17849      1920.3708      0.9969611
    184000  -650.40394      107.38307     -757.787        283.65979      1135.3814      1920.3708      0.9969611
    185000  -637.39152      110.3794      -747.77092      291.57481     -380.46035      1920.3708      0.9969611
    186000  -660.85786      102.76448     -763.62234      271.45948     -3190.7721      1920.3708      0.9969611
    187000  -638.00348      112.92771     -750.93119      298.30636      493.00526      1920.3708      0.9969611
    188000  -637.22602      127.76476     -764.99078      337.49945      322.99459      1920.3708      0.9969611
    189000  -652.65992      113.03335     -765.69327      298.58541      197.82405      1920.3708      0.9969611
    190000  -632.52028      117.1316      -749.65188      309.41121      1012.8468      1920.3708      0.9969611
    191000  -662.3591       108.11882     -770.47792      285.60334     -29.601965      1920.3708      0.9969611
    192000  -650.27596      115.66059     -765.93656      305.52545     -428.31722      1920.3708      0.9969611
    193000  -640.91074      128.73895     -769.64969      340.07283     -1032.3073      1920.3708      0.9969611
    194000  -669.57942      101.58391     -771.16333      268.34092      483.53872      1920.3708      0.9969611
    195000  -630.49036      110.65119     -741.14156      292.29277      1078.4874      1920.3708      0.9969611
    196000  -639.72688      110.11902     -749.84589      290.88699     -2534.843       1920.3708      0.9969611
    197000  -621.72132      116.4196      -738.14092      307.53042      527.91989      1920.3708      0.9969611
    198000  -663.68162      105.13989     -768.8215       277.73428     -2266.7672      1920.3708      0.9969611
    199000  -638.83344      108.35522     -747.18865      286.22779     -835.88183      1920.3708      0.9969611
    200000  -635.86743      117.83602     -753.70345      311.27198     -293.06846      1920.3708      0.9969611
    201000  -630.75583      116.86962     -747.62546      308.71919     -1316.5004      1920.3708      0.9969611
    202000  -644.00158      105.987       -749.98859      279.97199     -2280.6308      1920.3708      0.9969611
    203000  -640.21969      112.30656     -752.52625      296.66554     -1072.1008      1920.3708      0.9969611
    204000  -648.94552      122.55786     -771.50338      323.74505      1106.9488      1920.3708      0.9969611
    205000  -662.1949       108.42797     -770.62287      286.41998     -1100.0264      1920.3708      0.9969611
    206000  -630.5236       119.03357     -749.55717      314.4354       1285.4416      1920.3708      0.9969611
    207000  -642.51612      119.23051     -761.74663      314.95563      1806.5313      1920.3708      0.9969611
    208000  -660.59402      103.91881     -764.51282      274.50871      1279.4236      1920.3708      0.9969611
    209000  -666.72233      100.84661     -767.56894      266.39329     -2622.2212      1920.3708      0.9969611
    210000  -654.58951      109.73726     -764.32677      289.87856     -1691.7399      1920.3708      0.9969611
    211000  -656.12571      110.6148      -766.74051      292.19663     -882.44665      1920.3708      0.9969611
    212000  -636.90251      119.35755     -756.26006      315.29121     -767.0805       1920.3708      0.9969611
    213000  -653.29414      106.71994     -760.01407      281.90809     -1370.611       1920.3708      0.9969611
    214000  -670.39214      103.66081     -774.05296      273.8272       1428.6071      1920.3708      0.9969611
    215000  -650.27399      108.51202     -758.78601      286.64201     -457.76303      1920.3708      0.9969611
    216000  -674.23782      106.9753      -781.21313      282.58266     -84.149348      1920.3708      0.9969611
    217000  -656.87258      109.39929     -766.27187      288.98579     -1539.3801      1920.3708      0.9969611
    218000  -652.40368      115.08849     -767.49217      304.0142      -2815.9725      1920.3708      0.9969611
    219000  -660.23967      112.48299     -772.72266      297.13159     -2802.7444      1920.3708      0.9969611
    220000  -647.08473      112.51888     -759.60361      297.2264       2257.3449      1920.3708      0.9969611
    221000  -632.5207       127.68231     -760.20302      337.28166      185.10373      1920.3708      0.9969611
    222000  -623.15476      122.37023     -745.52499      323.24942      1112.1198      1920.3708      0.9969611
    223000  -642.70547      106.32128     -749.02675      280.85501     -1898.2559      1920.3708      0.9969611
    224000  -654.92592      108.01192     -762.93783      285.32095      908.15028      1920.3708      0.9969611
    225000  -632.61032      102.59194     -735.20226      271.0037      -1745.4046      1920.3708      0.9969611
    226000  -653.56009      110.41926     -763.97935      291.68011     -1033.7253      1920.3708      0.9969611
    227000  -661.01757      104.22708     -765.24465      275.32303     -925.39187      1920.3708      0.9969611
    228000  -650.15484      105.7976      -755.95245      279.47168      1106.6412      1920.3708      0.9969611
    229000  -648.177        119.09161     -767.26861      314.58871     -1158.8322      1920.3708      0.9969611
    230000  -641.1508       112.77214     -753.92294      297.89539      252.08447      1920.3708      0.9969611
    231000  -651.22781      124.31057     -775.53838      328.37496      1988.56        1920.3708      0.9969611
    232000  -633.62521      114.56895     -748.19416      302.64181     -1833.4952      1920.3708      0.9969611
    233000  -631.56816      121.42769     -752.99585      320.75964      1088.8904      1920.3708      0.9969611
    234000  -607.5208       123.37577     -730.89656      325.90562     -390.96229      1920.3708      0.9969611
    235000  -641.93469      111.35796     -753.29265      294.15975      1542.0522      1920.3708      0.9969611
    236000  -674.05259      110.55483     -784.60742      292.03823     -884.32686      1920.3708      0.9969611
    237000  -643.46259      109.66601     -753.1286       289.69034     -2439.1229      1920.3708      0.9969611
    238000  -644.59274      112.11837     -756.7111       296.16841      1508.2386      1920.3708      0.9969611
    239000  -649.71716      110.77535     -760.49251      292.62075      1724.1455      1920.3708      0.9969611
    240000  -619.39507      120.86738     -740.26244      319.27953      652.49471      1920.3708      0.9969611
    241000  -652.76973      117.7676      -770.53733      311.09124      731.30057      1920.3708      0.9969611
    242000  -622.95086      125.75156     -748.70241      332.18143      2107.8593      1920.3708      0.9969611
    243000  -644.04697      113.8304      -757.87737      300.69087      1096.7214      1920.3708      0.9969611
    244000  -631.49445      114.2787      -745.77316      301.8751       1279.1293      1920.3708      0.9969611
    245000  -646.51402      115.35869     -761.87271      304.72795      1254.1607      1920.3708      0.9969611
    246000  -660.33182      108.83687     -769.16869      287.50011      618.05392      1920.3708      0.9969611
    247000  -660.64658      101.28447     -761.93105      267.54994     -3363.7076      1920.3708      0.9969611
    248000  -651.41082      121.95004     -773.36085      322.13945     -2253.3279      1920.3708      0.9969611
    249000  -671.16914      106.87244     -778.04158      282.31094      669.15117      1920.3708      0.9969611
    250000  -631.80059      124.12147     -755.92206      327.87544     -410.33635      1920.3708      0.9969611
    251000  -632.25346      118.66392     -750.91738      313.45894      1104.8352      1920.3708      0.9969611
    252000  -621.67442      107.57764     -729.25206      284.17378     -1990.0576      1920.3708      0.9969611
    253000  -645.43866      102.45379     -747.89246      270.63878     -357.64757      1920.3708      0.9969611
    254000  -631.32947      108.02171     -739.35119      285.34682     -236.26622      1920.3708      0.9969611
    255000  -636.37381      116.53672     -752.91053      307.8398      -1514.3787      1920.3708      0.9969611
    256000  -621.17439      120.51513     -741.68952      318.34903      606.81593      1920.3708      0.9969611
    257000  -660.35928      112.43072     -772.79         296.99353     -1532.8758      1920.3708      0.9969611
    258000  -643.32476      100.31378     -743.63854      264.98579     -694.33719      1920.3708      0.9969611
    259000  -626.20861      116.61972     -742.82833      308.05905     -1491.1471      1920.3708      0.9969611
    260000  -657.47806      98.718346     -756.1964       260.77133     -1798.9397      1920.3708      0.9969611
    261000  -628.60277      114.20304     -742.80581      301.67522     -303.87802      1920.3708      0.9969611
    262000  -654.4652       112.59459     -767.05979      297.42638     -1101.4751      1920.3708      0.9969611
    263000  -666.83777      105.31107     -772.14884      278.18647     -790.73257      1920.3708      0.9969611
    264000  -655.14161      114.2166      -769.35822      301.71106     -1063.8701      1920.3708      0.9969611
    265000  -644.70193      109.08364     -753.78557      288.15198      1503.9126      1920.3708      0.9969611
    266000  -656.36974      116.45948     -772.82922      307.63576     -1669.097       1920.3708      0.9969611
    267000  -656.16734      104.78383     -760.95117      276.79372     -422.03376      1920.3708      0.9969611
    268000  -644.34951      120.75158     -765.10109      318.97364     -1989.3446      1920.3708      0.9969611
    269000  -641.72318      114.36573     -756.08891      302.10498     -134.16357      1920.3708      0.9969611
    270000  -646.82476      109.40996     -756.23472      289.01397     -1499.4041      1920.3708      0.9969611
    271000  -641.1181       112.36272     -753.48082      296.81389      27.78684       1920.3708      0.9969611
    272000  -647.98257      109.96132     -757.94389      290.47042      4755.1122      1920.3708      0.9969611
    273000  -655.7592       102.55832     -758.31752      270.9149      -2380.9693      1920.3708      0.9969611
    274000  -641.34855      116.40959     -757.75814      307.50396     -449.85398      1920.3708      0.9969611
    275000  -616.1177       112.42231     -728.54001      296.97129      728.19353      1920.3708      0.9969611
    276000  -653.33552      105.17495     -758.51047      277.82689      1590.5498      1920.3708      0.9969611
    277000  -673.80505      100.61517     -774.42022      265.78193     -1583.7045      1920.3708      0.9969611
    278000  -665.387        110.91598     -776.30298      292.99222      3239.4549      1920.3708      0.9969611
    279000  -658.72091      118.4951      -777.21602      313.013        727.52946      1920.3708      0.9969611
    280000  -660.2539       118.32244     -778.57634      312.5569      -121.6654       1920.3708      0.9969611
    281000  -625.11431      119.30784     -744.42214      315.1599      -441.52911      1920.3708      0.9969611
    282000  -645.29182      107.35526     -752.64709      283.58634      2233.871       1920.3708      0.9969611
    283000  -630.47639      107.98098     -738.45736      285.23921     -1246.292       1920.3708      0.9969611
    284000  -646.33762      108.70761     -755.04522      287.15865      2655.4905      1920.3708      0.9969611
    285000  -673.15176      103.07696     -776.22873      272.28492     -4314.2182      1920.3708      0.9969611
    286000  -638.68728      111.34366     -750.03094      294.12197     -1053.5489      1920.3708      0.9969611
    287000  -637.29606      107.4418      -744.73786      283.81495     -1753.9232      1920.3708      0.9969611
    288000  -668.94518      106.08514     -775.03032      280.23123      490.42658      1920.3708      0.9969611
    289000  -693.04893      97.605108     -790.65404      257.83064     -1770.7624      1920.3708      0.9969611
    290000  -680.64339      102.04464     -782.68803      269.55798     -717.31024      1920.3708      0.9969611
    291000  -669.06702      122.11983     -791.18686      322.58797      1781.3223      1920.3708      0.9969611
    292000  -696.77932      102.72887     -799.50819      271.3654       2293.5977      1920.3708      0.9969611
    293000  -658.04096      106.65712     -764.69807      281.74214      3260.1444      1920.3708      0.9969611
    294000  -655.93082      120.64721     -776.57803      318.69793     -1282.4743      1920.3708      0.9969611
    295000  -660.70902      116.58648     -777.29551      307.97126     -1428.1812      1920.3708      0.9969611
    296000  -662.46541      109.117       -771.58241      288.24011     -502.75557      1920.3708      0.9969611
    297000  -659.33102      116.68663     -776.01765      308.23581      2022.5549      1920.3708      0.9969611
    298000  -654.04898      118.08079     -772.12977      311.91858      921.33003      1920.3708      0.9969611
    299000  -671.42839      111.45375     -782.88214      294.41278     -1598.2384      1920.3708      0.9969611
    300000  -659.54647      102.09173     -761.63821      269.68237     -628.53281      1920.3708      0.9969611
    301000  -648.07548      117.90395     -765.97943      311.45143      741.87253      1920.3708      0.9969611
    302000  -620.22355      104.98704     -725.2106       277.33052     -1155.2591      1920.3708      0.9969611
    303000  -629.68231      115.44893     -745.13125      304.96634      43.764264      1920.3708      0.9969611
    304000  -641.81053      109.22966     -751.04019      288.53768      1348.8581      1920.3708      0.9969611
    305000  -639.5818       115.24747     -754.82927      304.43416     -825.91385      1920.3708      0.9969611
    306000  -647.4432       105.96408     -753.40728      279.91144     -1454.8757      1920.3708      0.9969611
    307000  -627.26739      112.59819     -739.86559      297.43591     -445.51718      1920.3708      0.9969611
    308000  -653.99619      112.13013     -766.12632      296.19948     -164.92562      1920.3708      0.9969611
    309000  -640.85618      129.24766     -770.10384      341.41662     -1582.985       1920.3708      0.9969611
    310000  -682.92667      98.949159     -781.87583      261.38104     -2712.9113      1920.3708      0.9969611
    311000  -652.86172      119.38311     -772.24483      315.35874      1199.4757      1920.3708      0.9969611
    312000  -661.82288      111.07921     -772.90208      293.4234      -1745.2588      1920.3708      0.9969611
    313000  -651.69664      110.10413     -761.80077      290.84768      2551.9112      1920.3708      0.9969611
    314000  -645.888        109.95779     -755.84579      290.46109      2052.0313      1920.3708      0.9969611
    315000  -656.26497      114.79243     -771.0574       303.23213     -1248.3962      1920.3708      0.9969611
    316000  -633.76205      109.78895     -743.55099      290.01509     -1326.3455      1920.3708      0.9969611
    317000  -649.30597      116.47498     -765.78095      307.67672     -683.36971      1920.3708      0.9969611
    318000  -647.31146      118.96281     -766.27427      314.24849     -938.59547      1920.3708      0.9969611
    319000  -682.17869      103.24528     -785.42397      272.72954      1948.7606      1920.3708      0.9969611
    320000  -648.26897      117.88405     -766.15302      311.39886     -316.90944      1920.3708      0.9969611
    321000  -645.99766      105.28805     -751.28572      278.12567     -3.7565322      1920.3708      0.9969611
    322000  -628.55493      116.95377     -745.5087       308.94146      2551.8612      1920.3708      0.9969611
    323000  -654.31512      107.00117     -761.31629      282.65099     -231.5488       1920.3708      0.9969611
    324000  -637.12946      111.3354      -748.46486      294.10014     -533.91623      1920.3708      0.9969611
    325000  -654.81053      113.54655     -768.35708      299.94106      536.30658      1920.3708      0.9969611
    326000  -645.72183      116.49564     -762.21747      307.73129      1676.6742      1920.3708      0.9969611
    327000  -654.37957      102.35119     -756.73076      270.36775     -1940.2873      1920.3708      0.9969611
    328000  -617.35067      115.13605     -732.48673      304.13984      2031.4023      1920.3708      0.9969611
    329000  -634.01504      124.58545     -758.60049      329.10108      96.347588      1920.3708      0.9969611
    330000  -609.60628      132.98834     -742.59462      351.29789     -3436.6921      1920.3708      0.9969611
    331000  -631.73592      124.74373     -756.47964      329.51917     -522.2958       1920.3708      0.9969611
    332000  -637.53623      115.43017     -752.9664       304.91677     -681.12956      1920.3708      0.9969611
    333000  -668.17527      102.18645     -770.36172      269.93256      1051.9926      1920.3708      0.9969611
    334000  -656.67028      109.41235     -766.08263      289.02027     -977.78785      1920.3708      0.9969611
    335000  -613.59416      124.45805     -738.05221      328.76453     -226.11104      1920.3708      0.9969611
    336000  -650.73669      110.27208     -761.00877      291.29133      692.19447      1920.3708      0.9969611
    337000  -615.41658      116.36244     -731.77902      307.37942     -269.0218       1920.3708      0.9969611
    338000  -619.07591      123.51378     -742.58969      326.27019      531.22765      1920.3708      0.9969611
    339000  -635.6354       111.98449     -747.61989      295.81476      34.08024       1920.3708      0.9969611
    340000  -636.82053      119.61163     -756.43217      315.96239     -9.5650244      1920.3708      0.9969611
    341000  -646.09223      111.19009     -757.28232      293.71631     -2078.1124      1920.3708      0.9969611
    342000  -623.62637      115.67239     -739.29876      305.55661      1696.4774      1920.3708      0.9969611
    343000  -648.90263      122.10982     -771.01245      322.56153     -1920.2444      1920.3708      0.9969611
    344000  -648.09443      104.5607      -752.65513      276.20431     -1495.352       1920.3708      0.9969611
    345000  -657.82532      105.77243     -763.59776      279.40519      1885.1254      1920.3708      0.9969611
    346000  -628.25979      134.8334      -763.09319      356.17175      119.66347      1920.3708      0.9969611
    347000  -636.67236      110.91027     -747.58263      292.97714     -847.45893      1920.3708      0.9969611
    348000  -644.19106      111.26432     -755.45538      293.91239     -1155.7093      1920.3708      0.9969611
    349000  -638.50541      110.92566     -749.43107      293.01779     -2633.5498      1920.3708      0.9969611
    350000  -644.38075      107.69905     -752.0798       284.49449      328.16289      1920.3708      0.9969611
    351000  -634.61453      115.28352     -749.89806      304.5294       472.39046      1920.3708      0.9969611
    352000  -648.69574      101.27755     -749.97329      267.53166     -1386.5512      1920.3708      0.9969611
    353000  -625.06003      114.39092     -739.45094      302.17152      768.16217      1920.3708      0.9969611
    354000  -639.92437      123.4647      -763.38906      326.14053     -1200.6139      1920.3708      0.9969611
    355000  -655.26412      108.29068     -763.5548       286.0573      -1228.3853      1920.3708      0.9969611
    356000  -648.20598      109.5756      -757.78158      289.45152      2915.8021      1920.3708      0.9969611
    357000  -657.81052      110.86694     -768.67746      292.86269     -650.65559      1920.3708      0.9969611
    358000  -644.22936      103.52108     -747.75044      273.45808     -1323.5942      1920.3708      0.9969611
    359000  -649.51177      112.01665     -761.52842      295.89971      433.69792      1920.3708      0.9969611
    360000  -642.1522       112.83703     -754.98923      298.06681      279.74612      1920.3708      0.9969611
    361000  -662.52076      110.62444     -773.1452       292.22211     -1863.3304      1920.3708      0.9969611
    362000  -637.70783      108.85413     -746.56196      287.54572      1589.5969      1920.3708      0.9969611
    363000  -637.22236      110.28041     -747.50277      291.31333      962.14958      1920.3708      0.9969611
    364000  -647.64857      108.97417     -756.62274      287.86281     -1852.9058      1920.3708      0.9969611
    365000  -657.4591       109.48828     -766.94737      289.22085      1557.7971      1920.3708      0.9969611
    366000  -679.63836      104.00447     -783.64283      274.73499      2353.2868      1920.3708      0.9969611
    367000  -640.69458      114.47045     -755.16503      302.38159     -52.827162      1920.3708      0.9969611
    368000  -642.00839      118.64244     -760.65082      313.40219      86.133716      1920.3708      0.9969611
    369000  -623.10859      114.1225      -737.23109      301.46247     -181.43409      1920.3708      0.9969611
    370000  -637.69315      111.55752     -749.25067      294.6869      -2016.5518      1920.3708      0.9969611
    371000  -637.0569       120.5092      -757.5661       318.33337      2566.822       1920.3708      0.9969611
    372000  -634.55247      111.19262     -745.74509      293.723        1014.2315      1920.3708      0.9969611
    373000  -650.60577      115.67215     -766.27792      305.55599      117.94277      1920.3708      0.9969611
    374000  -638.35109      119.08295     -757.43404      314.56584     -1578.8803      1920.3708      0.9969611
    375000  -657.48214      106.42093     -763.90308      281.11825      246.09924      1920.3708      0.9969611
    376000  -652.91549      115.77039     -768.68588      305.81549     -3565.8344      1920.3708      0.9969611
    377000  -651.78095      112.01129     -763.79224      295.88556      1514.0434      1920.3708      0.9969611
    378000  -644.95651      111.63372     -756.59023      294.8882       2759.289       1920.3708      0.9969611
    379000  -662.8293       117.34554     -780.17483      309.97635      2197.7084      1920.3708      0.9969611
    380000  -662.2243       113.68035     -775.90464      300.29449     -3817.4722      1920.3708      0.9969611
    381000  -647.81756      125.63469     -773.45226      331.87272     -232.17225      1920.3708      0.9969611
    382000  -666.24376      112.28194     -778.5257       296.6005       2979.9955      1920.3708      0.9969611
    383000  -659.63706      121.31809     -780.95515      320.47011     -677.44201      1920.3708      0.9969611
    384000  -653.6896       114.82791     -768.51751      303.32587     -725.96381      1920.3708      0.9969611
    385000  -659.47709      113.1161      -772.59319      298.804        1628.2542      1920.3708      0.9969611
    386000  -642.77974      109.71037     -752.49012      289.80754     -728.29537      1920.3708      0.9969611
    387000  -628.32784      122.0578      -750.38564      322.42411     -833.90739      1920.3708      0.9969611
    388000  -654.22455      113.71886     -767.94341      300.39622     -1595.4077      1920.3708      0.9969611
    389000  -648.17037      102.8036      -750.97397      271.56281      3170.0914      1920.3708      0.9969611
    390000  -630.8268       115.77385     -746.60066      305.82463     -2357.6303      1920.3708      0.9969611
    391000  -643.23342      110.72067     -753.9541       292.47631     -937.31064      1920.3708      0.9969611
    392000  -650.99784      109.21656     -760.21439      288.50309     -2823.0934      1920.3708      0.9969611
    393000  -649.67836      107.75826     -757.43662      284.65088     -2711.5936      1920.3708      0.9969611
    394000  -673.60405      113.60696     -787.21101      300.10062     -3612.26        1920.3708      0.9969611
    395000  -631.05963      118.10253     -749.16217      311.976       -2876.3534      1920.3708      0.9969611
    396000  -619.09866      130.92001     -750.01867      345.83427     -592.65056      1920.3708      0.9969611
    397000  -631.45451      123.70616     -755.16067      326.77838     -528.12714      1920.3708      0.9969611
    398000  -662.68182      113.62885     -776.31067      300.15846      668.53017      1920.3708      0.9969611
    399000  -657.78626      109.63427     -767.42053      289.60649      1396.2625      1920.3708      0.9969611
    400000  -641.33054      125.97935     -767.30989      332.78316     -335.92107      1920.3708      0.9969611
    401000  -655.91692      116.37064     -772.28756      307.40109      249.49817      1920.3708      0.9969611
    402000  -643.8611       111.95384     -755.81494      295.73381     -2717.1377      1920.3708      0.9969611
    403000  -663.05694      119.93613     -782.99307      316.81956     -1121.0095      1920.3708      0.9969611
    404000  -654.76174      111.30218     -766.06392      294.0124       2300.5635      1920.3708      0.9969611
    405000  -663.78685      99.621356     -763.40821      263.1567       593.82294      1920.3708      0.9969611
    406000  -642.38312      109.03498     -751.4181       288.02342      2196.1478      1920.3708      0.9969611
    407000  -651.6514       116.84547     -768.49687      308.65538     -86.887763      1920.3708      0.9969611
    408000  -666.96664      98.864126     -765.83077      261.15642     -321.62754      1920.3708      0.9969611
    409000  -648.89951      116.13133     -765.03084      306.76895     -425.81265      1920.3708      0.9969611
    410000  -646.61282      111.23127     -757.84409      293.82508     -2553.4775      1920.3708      0.9969611
    411000  -662.98211      117.10964     -780.09175      309.35321      2240.0626      1920.3708      0.9969611
    412000  -634.80101      124.55151     -759.35252      329.01143     -1209.8776      1920.3708      0.9969611
    413000  -647.47549      106.55161     -754.0271       281.46344      271.48536      1920.3708      0.9969611
    414000  -636.67013      119.00959     -755.67972      314.37206     -171.10595      1920.3708      0.9969611
    415000  -675.51794      107.67249     -783.19043      284.42433     -3063.6637      1920.3708      0.9969611
    416000  -650.39469      109.24643     -759.64112      288.582        288.22997      1920.3708      0.9969611
    417000  -652.72035      100.73809     -753.45844      266.10663      446.88919      1920.3708      0.9969611
    418000  -632.51134      125.95796     -758.4693       332.72665      3327.1966      1920.3708      0.9969611
    419000  -649.42513      115.29691     -764.72204      304.56477      273.13791      1920.3708      0.9969611
    420000  -661.87628      116.54458     -778.42086      307.86056     -1822.4083      1920.3708      0.9969611
    421000  -637.66125      116.2575      -753.91875      307.10222     -1694.1227      1920.3708      0.9969611
    422000  -650.354        124.31902     -774.67302      328.39728     -109.01532      1920.3708      0.9969611
    423000  -655.68583      108.08747     -763.77331      285.52053      819.72738      1920.3708      0.9969611
    424000  -671.22374      111.30756     -782.5313       294.0266       1140.8697      1920.3708      0.9969611
    425000  -674.1642       94.101237     -768.26544      248.57492      2099.5151      1920.3708      0.9969611
    426000  -652.07854      101.94757     -754.02611      269.30155      866.93503      1920.3708      0.9969611
    427000  -634.00498      119.42538     -753.43036      315.47039     -2040.56        1920.3708      0.9969611
    428000  -658.76242      114.87393     -773.63634      303.44741     -1252.5947      1920.3708      0.9969611
    429000  -636.92263      121.83883     -758.76146      321.84568     -1687.7689      1920.3708      0.9969611
    430000  -655.2809       118.9605      -774.24139      314.24238     -875.18438      1920.3708      0.9969611
    431000  -639.93488      118.46895     -758.40383      312.94392      1152.4784      1920.3708      0.9969611
    432000  -625.36666      112.27814     -737.6448       296.59047     -658.90609      1920.3708      0.9969611
    433000  -626.22447      115.03771     -741.26218      303.88006     -1470.6405      1920.3708      0.9969611
    434000  -663.67268      93.649034     -757.32171      247.38039     -17.271952      1920.3708      0.9969611
    435000  -638.92301      102.08268     -741.00569      269.65845     -116.82903      1920.3708      0.9969611
    436000  -614.98642      117.92621     -732.91264      311.51024      2703.1544      1920.3708      0.9969611
    437000  -636.09676      108.40567     -744.50243      286.36107     -2049.0404      1920.3708      0.9969611
    438000  -635.42276      111.24678     -746.66954      293.86605     -777.73074      1920.3708      0.9969611
    439000  -665.87808      104.81093     -770.68901      276.86531      60.452189      1920.3708      0.9969611
    440000  -648.23087      126.51659     -774.74746      334.20231      1097.1769      1920.3708      0.9969611
    441000  -685.75041      94.295695     -780.04611      249.08859      1042.8267      1920.3708      0.9969611
    442000  -632.45293      127.95024     -760.40317      337.9894       2556.9349      1920.3708      0.9969611
    443000  -660.5868       112.51478     -773.10157      297.21556      300.81245      1920.3708      0.9969611
    444000  -649.50205      110.03235     -759.5344       290.65805     -2136.4448      1920.3708      0.9969611
    445000  -669.57589      104.82488     -774.40077      276.90217     -206.93305      1920.3708      0.9969611
    446000  -648.22418      134.00122     -782.2254       353.97349      501.38316      1920.3708      0.9969611
    447000  -647.45781      110.92049     -758.3783       293.00413      280.52978      1920.3708      0.9969611
    448000  -654.77847      108.72692     -763.50539      287.20968      2411.7599      1920.3708      0.9969611
    449000  -666.86885      105.72532     -772.59417      279.28075     -2398.9402      1920.3708      0.9969611
    450000  -639.66763      130.25605     -769.92368      344.08036     -2283.3685      1920.3708      0.9969611
    451000  -678.66125      101.00996     -779.67121      266.8248       1371.8922      1920.3708      0.9969611
    452000  -646.81039      128.53851     -775.3489       339.54335     -2926.6802      1920.3708      0.9969611
    453000  -648.49928      111.28432     -759.7836       293.96522     -1686.3411      1920.3708      0.9969611
    454000  -647.03641      113.09073     -760.12714      298.73698     -178.5805       1920.3708      0.9969611
    455000  -640.07874      102.61526     -742.694        271.06531     -330.73864      1920.3708      0.9969611
    456000  -613.30503      120.47062     -733.77565      318.23148      706.99686      1920.3708      0.9969611
    457000  -651.47349      116.12826     -767.60175      306.76082      1804.9907      1920.3708      0.9969611
    458000  -668.80058      114.39679     -783.19737      302.18702     -2326.6784      1920.3708      0.9969611
    459000  -644.25939      112.23291     -756.4923       296.47098      793.91798      1920.3708      0.9969611
    460000  -678.0963       102.97683     -781.07313      272.0204      -718.20829      1920.3708      0.9969611
    461000  -637.95607      109.81817     -747.77424      290.09229      850.01554      1920.3708      0.9969611
    462000  -649.25807      115.45185     -764.70992      304.97405      896.63748      1920.3708      0.9969611
    463000  -643.99482      122.55678     -766.5516       323.7422       1695.3575      1920.3708      0.9969611
    464000  -654.44199      115.07109     -769.51307      303.96823      294.94671      1920.3708      0.9969611
    465000  -642.04725      111.26498     -753.31223      293.91414     -279.16641      1920.3708      0.9969611
    466000  -658.53242      96.511464     -755.04388      254.9417      -60.137586      1920.3708      0.9969611
    467000  -635.92813      102.70553     -738.63367      271.30377     -2769.2314      1920.3708      0.9969611
    468000  -655.88529      109.86918     -765.75448      290.22704     -2839.7778      1920.3708      0.9969611
    469000  -633.51611      122.80619     -756.32231      324.40105      293.19517      1920.3708      0.9969611
    470000  -651.17576      119.77016     -770.94592      316.38114      2509.5292      1920.3708      0.9969611
    471000  -658.30614      102.90715     -761.21328      271.83634      886.64714      1920.3708      0.9969611
    472000  -638.39535      107.64615     -746.0415       284.35475     -1810.647       1920.3708      0.9969611
    473000  -637.71089      122.84884     -760.55973      324.5137      -234.40545      1920.3708      0.9969611
    474000  -640.70955      107.04603     -747.75558      282.76948      2914.8951      1920.3708      0.9969611
    475000  -666.80127      106.17098     -772.97225      280.45798      738.08826      1920.3708      0.9969611
    476000  -668.97291      97.472248     -766.44516      257.47968     -1393.8162      1920.3708      0.9969611
    477000  -676.66516      105.92348     -782.58864      279.80419      736.62028      1920.3708      0.9969611
    478000  -659.6655       110.08648     -769.75199      290.80106     -1442.1936      1920.3708      0.9969611
    479000  -639.16256      111.01608     -750.17863      293.25664      933.53779      1920.3708      0.9969611
    480000  -680.59544      86.106152     -766.70159      227.45535     -772.92719      1920.3708      0.9969611
    481000  -655.09324      113.48289     -768.57612      299.77289      619.40831      1920.3708      0.9969611
    482000  -668.98698      110.99495     -779.98193      293.20083      2107.9577      1920.3708      0.9969611
    483000  -636.38501      117.86986     -754.25487      311.36138      1090.0499      1920.3708      0.9969611
    484000  -648.68181      107.7914      -756.47321      284.73843      1051.8381      1920.3708      0.9969611
    485000  -633.93879      126.75886     -760.69765      334.84229     -1278.5961      1920.3708      0.9969611
    486000  -661.34874      110.93492     -772.28366      293.04227      1211.3058      1920.3708      0.9969611
    487000  -633.09457      95.41343      -728.508        252.04117     -1578.4837      1920.3708      0.9969611
    488000  -650.44783      97.216892     -747.66473      256.80514     -618.95554      1920.3708      0.9969611
    489000  -660.2444       116.41151     -776.65591      307.50906      2351.4786      1920.3708      0.9969611
    490000  -668.10249      108.50465     -776.60714      286.62253      1749.0896      1920.3708      0.9969611
    491000  -655.27159      97.814305     -753.08589      258.38325      206.45753      1920.3708      0.9969611
    492000  -635.6786       112.67795     -748.35655      297.64659      2057.0302      1920.3708      0.9969611
    493000  -632.80346      129.27511     -762.07856      341.48913      2637.3435      1920.3708      0.9969611
    494000  -654.38451      110.90243     -765.28694      292.95644      1001.9873      1920.3708      0.9969611
    495000  -622.31164      122.14039     -744.45203      322.64228     -1946.5107      1920.3708      0.9969611
    496000  -660.20647      115.13188     -775.33835      304.12881     -1537.6444      1920.3708      0.9969611
    497000  -645.87774      117.35324     -763.23097      309.99669      790.54301      1920.3708      0.9969611
    498000  -631.86784      128.67867     -760.5465       339.91359     -1698.7746      1920.3708      0.9969611
    499000  -671.4815       102.03017     -773.51167      269.51975     -161.45173      1920.3708      0.9969611
    500000  -644.41667      124.67467     -769.09134      329.33675     -1055.2087      1920.3708      0.9969611
    501000  -621.01985      111.68323     -732.70309      295.01898      2998.3848      1920.3708      0.9969611
    502000  -626.92212      107.98885     -734.91098      285.26001     -755.69728      1920.3708      0.9969611
    503000  -647.96287      110.8428      -758.80567      292.79891     -173.73801      1920.3708      0.9969611
    504000  -650.60266      108.58586     -759.18853      286.83706      373.90576      1920.3708      0.9969611
    505000  -670.98466      104.31353     -775.29819      275.55139      1076.1222      1920.3708      0.9969611
    506000  -670.03044      123.9154      -793.94583      327.33108      1494.4665      1920.3708      0.9969611
    507000  -644.83687      112.46712     -757.30398      297.08966     -1164.0763      1920.3708      0.9969611
    508000  -641.05938      111.94427     -753.00366      295.70854     -2944.3931      1920.3708      0.9969611
    509000  -624.34209      117.05394     -741.39603      309.20607     -2536.9512      1920.3708      0.9969611
    510000  -666.92638      102.76732     -769.6937       271.46697     -2477.437       1920.3708      0.9969611
    511000  -637.68894      113.11316     -750.8021       298.79624      4134.2651      1920.3708      0.9969611
    512000  -661.76596      121.74026     -783.50622      321.5853      -1956.6417      1920.3708      0.9969611
    513000  -624.58755      112.89844     -737.48599      298.22904     -1690.3496      1920.3708      0.9969611
    514000  -614.12732      130.5556      -744.68291      344.87163     -351.01778      1920.3708      0.9969611
    515000  -640.97778      113.53161     -754.50939      299.9016       333.59979      1920.3708      0.9969611
    516000  -618.98583      112.33917     -731.325        296.75167      2028.7094      1920.3708      0.9969611
    517000  -630.66825      109.37444     -740.04269      288.92014      136.56946      1920.3708      0.9969611
    518000  -616.4381       123.60195     -740.04005      326.5031      -15.848945      1920.3708      0.9969611
    519000  -638.83937      119.13236     -757.97173      314.69637     -945.77787      1920.3708      0.9969611
    520000  -655.67113      117.40797     -773.0791       310.14126     -3386.818       1920.3708      0.9969611
    521000  -655.39981      118.04179     -773.44159      311.81554     -691.45963      1920.3708      0.9969611
    522000  -644.06764      114.2114      -758.27903      301.6973      -541.56709      1920.3708      0.9969611
    523000  -637.85774      116.80733     -754.66507      308.55463     -552.51176      1920.3708      0.9969611
    524000  -616.76045      120.97918     -737.73962      319.57486      358.29712      1920.3708      0.9969611
    525000  -654.94804      111.74714     -766.69518      295.18779     -1497.0698      1920.3708      0.9969611
    526000  -644.70892      107.69379     -752.4027       284.48058      9.29305        1920.3708      0.9969611
    527000  -624.15154      125.07879     -749.23033      330.40428     -1432.0384      1920.3708      0.9969611
    528000  -638.15756      113.87306     -752.03062      300.80356     -2877.1721      1920.3708      0.9969611
    529000  -639.99519      114.2767      -754.27189      301.8698      -481.92085      1920.3708      0.9969611
    530000  -660.36678      110.46351     -770.8303       291.79701      821.94948      1920.3708      0.9969611
    531000  -655.12714      117.16359     -772.29074      309.49573      683.68554      1920.3708      0.9969611
    532000  -629.90572      122.09753     -752.00325      322.52906      1846.9187      1920.3708      0.9969611
    533000  -628.08289      113.1526      -741.23549      298.90042     -1314.2845      1920.3708      0.9969611
    534000  -600.52352      119.55551     -720.07903      315.81415      1518.596       1920.3708      0.9969611
    535000  -672.92419      106.52249     -779.44668      281.38651     -32.435508      1920.3708      0.9969611
    536000  -657.23347      110.1058      -767.33927      290.85209      1744.8124      1920.3708      0.9969611
    537000  -642.32634      107.95521     -750.28155      285.17114      2071.4069      1920.3708      0.9969611
    538000  -654.77796      115.60221     -770.38017      305.37123      2089.1428      1920.3708      0.9969611
    539000  -641.67489      122.85883     -764.53372      324.54008     -278.70887      1920.3708      0.9969611
    540000  -636.92365      137.72164     -774.64529      363.80124     -291.27973      1920.3708      0.9969611
    541000  -625.55294      112.22426     -737.7772       296.44815     -3230.1212      1920.3708      0.9969611
    542000  -627.64793      122.24413     -749.89206      322.91633      1587.9035      1920.3708      0.9969611
    543000  -650.98091      94.764489     -745.7454       250.32695     -1361.896       1920.3708      0.9969611
    544000  -654.41205      118.45415     -772.86619      312.90482      1169.9921      1920.3708      0.9969611
    545000  -613.43576      113.5212      -726.95696      299.8741       1219.7069      1920.3708      0.9969611
    546000  -651.98073      99.018383     -750.99911      261.5639       641.80265      1920.3708      0.9969611
    547000  -640.36597      122.64529     -763.01126      323.976        296.21788      1920.3708      0.9969611
    548000  -647.42784      123.28451     -770.71235      325.66455     -1021.7912      1920.3708      0.9969611
    549000  -678.94941      97.63083      -776.58024      257.89859      1387.7427      1920.3708      0.9969611
    550000  -651.4209       119.80597     -771.22687      316.47576      392.85919      1920.3708      0.9969611
    551000  -641.60357      112.98906     -754.59263      298.46841      530.11568      1920.3708      0.9969611
    552000  -661.24158      110.18936     -771.43095      291.07282     -532.64793      1920.3708      0.9969611
    553000  -639.91326      116.59455     -756.50781      307.99256     -1822.8637      1920.3708      0.9969611
    554000  -668.94681      111.05111     -779.99792      293.34919     -1989.8292      1920.3708      0.9969611
    555000  -635.34495      122.92532     -758.27027      324.71574      926.82269      1920.3708      0.9969611
    556000  -667.84534      108.0859      -775.93124      285.51638      511.26567      1920.3708      0.9969611
    557000  -642.00035      127.45842     -769.45876      336.69022      1003.8263      1920.3708      0.9969611
    558000  -660.18793      104.42379     -764.61172      275.84265     -1998.195       1920.3708      0.9969611
    559000  -632.18557      103.92266     -736.10822      274.51888      898.29142      1920.3708      0.9969611
    560000  -636.97761      123.43286     -760.41046      326.05642     -407.44235      1920.3708      0.9969611
    561000  -628.16808      120.09223     -748.26032      317.23194     -383.68058      1920.3708      0.9969611
    562000  -662.10607      101.651       -763.75706      268.51813      417.05511      1920.3708      0.9969611
    563000  -656.14762      106.43556     -762.58318      281.15688     -2430.3852      1920.3708      0.9969611
    564000  -633.67571      122.36412     -756.03982      323.23327     -49.400583      1920.3708      0.9969611
    565000  -640.74214      114.25988     -755.00203      301.82538      1506.9952      1920.3708      0.9969611
    566000  -620.5809       128.19691     -748.77781      338.641       -1035.3247      1920.3708      0.9969611
    567000  -673.58769      98.001974     -771.58967      258.87899     -959.29021      1920.3708      0.9969611
    568000  -658.24679      111.13781     -769.38459      293.5782      -1722.0923      1920.3708      0.9969611
    569000  -654.82793      107.86596     -762.69389      284.93538     -1511.8888      1920.3708      0.9969611
    570000  -665.35903      112.67027     -778.0293       297.6263       2196.322       1920.3708      0.9969611
    571000  -658.06147      99.639762     -757.70123      263.20532     -359.53106      1920.3708      0.9969611
    572000  -658.03639      106.81408     -764.85047      282.15679      2204.532       1920.3708      0.9969611
    573000  -672.38114      109.94089     -782.32203      290.41645      586.58999      1920.3708      0.9969611
    574000  -642.82115      110.32308     -753.14423      291.42604      1284.8161      1920.3708      0.9969611
    575000  -663.54364      104.9443      -768.48794      277.21761     -1562.9691      1920.3708      0.9969611
    576000  -654.81742      111.20498     -766.0224       293.75564     -1603.6247      1920.3708      0.9969611
    577000  -643.39663      108.69557     -752.0922       287.12687     -261.18951      1920.3708      0.9969611
    578000  -635.87774      118.64184     -754.51958      313.40061     -215.88788      1920.3708      0.9969611
    579000  -645.07565      111.13987     -756.21552      293.58365      393.94518      1920.3708      0.9969611
    580000  -660.36278      111.67185     -772.03463      294.98891     -2090.0059      1920.3708      0.9969611
    581000  -674.66512      100.75313     -775.41825      266.14635     -1214.3965      1920.3708      0.9969611
    582000  -667.70321      103.36867     -771.07187      273.05547     -222.71056      1920.3708      0.9969611
    583000  -632.18984      117.46285     -749.65269      310.28625      1028.4814      1920.3708      0.9969611
    584000  -642.54566      113.58109     -756.12675      300.0323       648.89839      1920.3708      0.9969611
    585000  -651.45537      106.33781     -757.79319      280.89869     -560.68034      1920.3708      0.9969611
    586000  -662.15456      110.21229     -772.36685      291.13338     -844.77954      1920.3708      0.9969611
    587000  -634.25156      105.771       -740.02256      279.40141     -543.20806      1920.3708      0.9969611
    588000  -661.11683      107.07644     -768.19327      282.84981     -693.78501      1920.3708      0.9969611
    589000  -663.68605      109.48387     -773.16992      289.2092      -688.18116      1920.3708      0.9969611
    590000  -659.54437      115.61087     -775.15524      305.39411     -415.14273      1920.3708      0.9969611
    591000  -642.83852      118.58323     -761.42175      313.2458      -2267.3006      1920.3708      0.9969611
    592000  -648.42301      116.01495     -764.43796      306.46152     -415.26007      1920.3708      0.9969611
    593000  -646.55218      102.17923     -748.7314       269.91348     -4027.5439      1920.3708      0.9969611
    594000  -637.36489      115.33177     -752.69667      304.65685     -2849.1508      1920.3708      0.9969611
    595000  -622.78136      119.12598     -741.90734      314.67952     -920.15158      1920.3708      0.9969611
    596000  -637.62435      113.42837     -751.05272      299.62888      402.51398      1920.3708      0.9969611
    597000  -664.35488      103.70357     -768.05845      273.94014     -1857.8932      1920.3708      0.9969611
    598000  -625.36024      116.0585      -741.41873      306.57654     -125.74708      1920.3708      0.9969611
    599000  -649.44857      121.11956     -770.56813      319.94568     -1106.3056      1920.3708      0.9969611
    600000  -660.88346      101.97568     -762.85914      269.37581      217.26706      1920.3708      0.9969611
    601000  -639.7926       129.64498     -769.43759      342.46618     -263.12872      1920.3708      0.9969611
    602000  -661.32917      116.02037     -777.34954      306.47582     -1064.529       1920.3708      0.9969611
    603000  -665.61157      115.08643     -780.69801      304.00876     -2744.6862      1920.3708      0.9969611
    604000  -650.85713      116.16546     -767.0226       306.8591      -1901.4671      1920.3708      0.9969611
    605000  -648.81096      115.54858     -764.35955      305.22957      958.23775      1920.3708      0.9969611
    606000  -658.22512      119.73577     -777.96089      316.29032     -1785.5909      1920.3708      0.9969611
    607000  -665.05027      111.91143     -776.96171      295.62179     -284.35682      1920.3708      0.9969611
    608000  -665.65953      106.18322     -771.84275      280.49032     -1077.5566      1920.3708      0.9969611
    609000  -639.01595      121.6059      -760.62185      321.2304      -415.60027      1920.3708      0.9969611
    610000  -660.73005      113.13018     -773.86023      298.8412      -2937.1785      1920.3708      0.9969611
    611000  -638.60927      115.11023     -753.7195       304.07163      850.82315      1920.3708      0.9969611
    612000  -624.28139      115.57509     -739.85648      305.29959     -802.24653      1920.3708      0.9969611
    613000  -634.26454      107.27271     -741.53724      283.36827     -2986.9421      1920.3708      0.9969611
    614000  -645.26428      114.01881     -759.2831       301.18857     -17.960143      1920.3708      0.9969611
    615000  -669.89766      101.36039     -771.25804      267.75047      431.93462      1920.3708      0.9969611
    616000  -631.83366      120.71155     -752.54521      318.86791      670.70335      1920.3708      0.9969611
    617000  -629.28159      116.25847     -745.54006      307.10478     -219.00013      1920.3708      0.9969611
    618000  -646.57306      119.07104     -765.6441       314.53438      883.77322      1920.3708      0.9969611
    619000  -659.22276      116.60937     -775.83213      308.03172     -1389.1053      1920.3708      0.9969611
    620000  -674.69658      104.27603     -778.97261      275.45235     -1664.6885      1920.3708      0.9969611
    621000  -665.62343      106.75581     -772.37925      282.00286     -3210.6184      1920.3708      0.9969611
    622000  -646.23021      110.99871     -757.22892      293.21077     -719.27687      1920.3708      0.9969611
    623000  -665.48547      97.16602      -762.65149      256.67076     -108.46155      1920.3708      0.9969611
    624000  -671.49507      111.98154     -783.47661      295.80699     -1765.5588      1920.3708      0.9969611
    625000  -663.48518      118.62574     -782.11092      313.35808     -1114.5873      1920.3708      0.9969611
    626000  -632.22048      127.03825     -759.25873      335.58031     -555.29437      1920.3708      0.9969611
    627000  -633.84522      107.45978     -741.305        283.86243     -303.8562       1920.3708      0.9969611
    628000  -637.14719      110.17152     -747.31871      291.02568      141.54395      1920.3708      0.9969611
    629000  -638.69707      120.09836     -758.79543      317.24812     -470.53763      1920.3708      0.9969611
    630000  -627.10906      124.16831     -751.27737      327.99918     -171.74682      1920.3708      0.9969611
    631000  -627.37991      130.82806     -758.20797      345.59136     -264.7069       1920.3708      0.9969611
    632000  -654.0529       118.96588     -773.01878      314.2566      -2417.7488      1920.3708      0.9969611
    633000  -666.87716      119.98315     -786.8603       316.94378     -97.676417      1920.3708      0.9969611
    634000  -665.22363      109.32921     -774.55284      288.80067      2504.2098      1920.3708      0.9969611
    635000  -656.90452      106.46187     -763.36639      281.22639     -597.25898      1920.3708      0.9969611
    636000  -694.6575       99.330452     -793.98795      262.38825     -2747.9869      1920.3708      0.9969611
    637000  -661.34405      120.15378     -781.49784      317.39452     -1802.2391      1920.3708      0.9969611
    638000  -671.2237       111.49567     -782.71937      294.52351     -1981.6155      1920.3708      0.9969611
    639000  -638.80293      111.91997     -750.7229       295.64434      2288.5802      1920.3708      0.9969611
    640000  -638.29492      119.63158     -757.9265       316.01508      3172.8858      1920.3708      0.9969611
    641000  -645.62746      123.98461     -769.61207      327.51392      2976.6643      1920.3708      0.9969611
    642000  -680.19304      96.666193     -776.85924      255.35043     -998.49445      1920.3708      0.9969611
    643000  -633.78445      107.87357     -741.65802      284.95548      873.70649      1920.3708      0.9969611
    644000  -644.31091      97.843081     -742.15399      258.45926     -919.3756       1920.3708      0.9969611
    645000  -633.65601      121.99304     -755.64904      322.25304     -170.90152      1920.3708      0.9969611
    646000  -683.14959      101.20844     -784.35803      267.3491      -3174.5029      1920.3708      0.9969611
    647000  -647.00704      118.55275     -765.55979      313.16528     -461.5906       1920.3708      0.9969611
    648000  -659.74699      106.58914     -766.33613      281.56258      12.232265      1920.3708      0.9969611
    649000  -631.48022      110.75172     -742.23194      292.55831      2466.7385      1920.3708      0.9969611
    650000  -622.19381      114.45475     -736.64856      302.34013      1006.8031      1920.3708      0.9969611
    651000  -644.81076      114.02139     -758.83214      301.19537     -3134.1004      1920.3708      0.9969611
    652000  -645.07324      102.04797     -747.12121      269.56678      30.73956       1920.3708      0.9969611
    653000  -638.71588      117.50726     -756.22314      310.40355      449.03481      1920.3708      0.9969611
    654000  -664.68709      96.511241     -761.19833      254.94111     -1450.9747      1920.3708      0.9969611
    655000  -664.42876      110.81289     -775.24165      292.71991     -2516.3069      1920.3708      0.9969611
[...]
   2841000  -650.37339      118.29622     -768.66961      312.48764     -861.69841      1920.3708      0.9969611
   2842000  -651.18402      117.9811      -769.16512      311.65522      476.7401       1920.3708      0.9969611
   2843000  -667.68174      101.71563     -769.39737      268.68887      474.54958      1920.3708      0.9969611
   2844000  -663.64825      106.19531     -769.84356      280.52226     -1631.1057      1920.3708      0.9969611
   2845000  -651.2041       118.40042     -769.60452      312.7629      -768.77712      1920.3708      0.9969611
   2846000  -661.42066      111.59609     -773.01676      294.78879      350.2464       1920.3708      0.9969611
   2847000  -657.83746      120.33842     -778.17588      317.88225      712.73426      1920.3708      0.9969611
   2848000  -663.49583      111.29002     -774.78585      293.98028     -2421.0753      1920.3708      0.9969611
   2849000  -660.39084      106.92639     -767.31724      282.45346      2358.1857      1920.3708      0.9969611
   2850000  -637.72338      127.18536     -764.90874      335.96893      892.08897      1920.3708      0.9969611
   2851000  -655.30865      109.74724     -765.05589      289.90491     -2063.1362      1920.3708      0.9969611
   2852000  -644.17283      115.0705      -759.24332      303.96667     -2156.2201      1920.3708      0.9969611
   2853000  -634.90966      120.57289     -755.48255      318.50162     -4185.2114      1920.3708      0.9969611
   2854000  -635.24675      109.25899     -744.50574      288.61518     -1623.5116      1920.3708      0.9969611
   2855000  -645.20832      110.61264     -755.82096      292.19094     -1655.1446      1920.3708      0.9969611
   2856000  -649.4492       105.59104     -755.04024      278.92602     -803.20329      1920.3708      0.9969611
   2857000  -649.45654      99.384206     -748.84074      262.53025     -1364.1607      1920.3708      0.9969611
   2858000  -644.02778      125.17331     -769.2011       330.65396     -1055.7359      1920.3708      0.9969611
   2859000  -634.51181      114.00356     -748.51537      301.14829     -1252.3893      1920.3708      0.9969611
   2860000  -623.89297      118.91628     -742.80925      314.12558      987.37664      1920.3708      0.9969611
   2861000  -648.14007      108.25614     -756.39621      285.96608      506.71153      1920.3708      0.9969611
   2862000  -642.26105      115.40145     -757.66251      304.84091      1051.1838      1920.3708      0.9969611
   2863000  -667.42064      103.43078     -770.85142      273.21956      605.06141      1920.3708      0.9969611
   2864000  -628.84214      112.72249     -741.56463      297.76424      1898.9441      1920.3708      0.9969611
   2865000  -639.79889      127.40608     -767.20496      336.55195     -1717.3537      1920.3708      0.9969611
   2866000  -637.6713       102.67425     -740.34554      271.22112     -778.62671      1920.3708      0.9969611
   2867000  -650.10194      98.502843     -748.60478      260.20207      689.29337      1920.3708      0.9969611
   2868000  -627.86603      113.63966     -741.50569      300.187        593.95457      1920.3708      0.9969611
   2869000  -647.27323      110.20804     -757.48127      291.12217      2347.5263      1920.3708      0.9969611
   2870000  -645.61957      100.91515     -746.53472      266.57433     -1855.9549      1920.3708      0.9969611
   2871000  -651.1038       119.80585     -770.90965      316.47544      2103.9267      1920.3708      0.9969611
   2872000  -650.20364      117.30026     -767.50389      309.85673      1458.7147      1920.3708      0.9969611
   2873000  -662.45539      106.64148     -769.09687      281.70084     -1150.8311      1920.3708      0.9969611
   2874000  -648.76284      113.10414     -761.86697      298.7724       4250.5843      1920.3708      0.9969611
   2875000  -664.75008      113.54516     -778.29525      299.9374      -247.57624      1920.3708      0.9969611
   2876000  -632.98112      128.42869     -761.40981      339.25326     -2016.0521      1920.3708      0.9969611
   2877000  -664.82418      114.4644      -779.28858      302.36563      940.23414      1920.3708      0.9969611
   2878000  -651.11033      109.47059     -760.58092      289.17414     -1009.8106      1920.3708      0.9969611
   2879000  -674.12303      105.29334     -779.41638      278.13964      683.24661      1920.3708      0.9969611
   2880000  -656.11382      123.54605     -779.65987      326.35544      297.29352      1920.3708      0.9969611
   2881000  -639.85619      114.18207     -754.03826      301.61982     -880.49386      1920.3708      0.9969611
   2882000  -651.80544      111.9565      -763.76194      295.74082      411.31581      1920.3708      0.9969611
   2883000  -636.25446      117.11763     -753.37209      309.37432     -848.14198      1920.3708      0.9969611
   2884000  -644.95135      115.87656     -760.82791      306.09595      534.0602       1920.3708      0.9969611
   2885000  -663.97941      104.94794     -768.92735      277.22723     -89.766187      1920.3708      0.9969611
   2886000  -647.19199      104.23811     -751.4301       275.35218      1525.7366      1920.3708      0.9969611
   2887000  -648.71123      99.298988     -748.01022      262.30514     -18.091954      1920.3708      0.9969611
   2888000  -660.21275      108.40903     -768.62178      286.36995     -401.94988      1920.3708      0.9969611
   2889000  -633.54762      123.32976     -756.87738      325.78409     -1000.3146      1920.3708      0.9969611
   2890000  -665.45242      110.51023     -775.96265      291.92041      1230.5703      1920.3708      0.9969611
   2891000  -658.95539      100.15692     -759.11231      264.57143      118.15366      1920.3708      0.9969611
   2892000  -635.45742      110.29499     -745.75241      291.35183      233.29502      1920.3708      0.9969611
   2893000  -646.06825      97.435924     -743.50417      257.38373      396.88606      1920.3708      0.9969611
   2894000  -670.30345      104.85445     -775.1579       276.98029      1191.2997      1920.3708      0.9969611
   2895000  -637.98575      117.08084     -755.06659      309.27713     -1499.869       1920.3708      0.9969611
   2896000  -643.13189      108.21608     -751.34797      285.86026     -282.47675      1920.3708      0.9969611
   2897000  -635.31457      111.83759     -747.15215      295.42672     -429.81869      1920.3708      0.9969611
   2898000  -637.3071       110.05094     -747.35804      290.70717     -2531.3057      1920.3708      0.9969611
   2899000  -623.83792      124.37599     -748.21391      328.54778      1633.3406      1920.3708      0.9969611
   2900000  -643.11727      110.60146     -753.71873      292.1614       1646.7705      1920.3708      0.9969611
   2901000  -616.08969      128.90671     -744.9964       340.51599      1538.4058      1920.3708      0.9969611
   2902000  -640.70418      118.9695      -759.67368      314.26616      2526.8882      1920.3708      0.9969611
   2903000  -640.708        103.12458     -743.83259      272.41071     -412.0677       1920.3708      0.9969611
   2904000  -605.60424      123.83208     -729.43631      327.11099     -712.81607      1920.3708      0.9969611
   2905000  -646.60135      113.45804     -760.05939      299.70725     -79.203843      1920.3708      0.9969611
   2906000  -646.5007       103.18524     -749.68593      272.57093      1749.193       1920.3708      0.9969611
   2907000  -653.54719      113.22103     -766.76822      299.08119      256.0508       1920.3708      0.9969611
   2908000  -630.34451      114.89897     -745.24348      303.51356      1009.5599      1920.3708      0.9969611
   2909000  -671.68105      106.51434     -778.19539      281.365        117.94894      1920.3708      0.9969611
   2910000  -641.73137      108.20937     -749.94074      285.84254     -3431.9212      1920.3708      0.9969611
   2911000  -648.13669      113.27609     -761.41278      299.22662      394.16187      1920.3708      0.9969611
   2912000  -656.86952      114.02708     -770.8966       301.2104      -1519.5866      1920.3708      0.9969611
   2913000  -634.23991      137.97341     -772.21332      364.46631      1257.3071      1920.3708      0.9969611
   2914000  -647.25712      124.17721     -771.43434      328.02269      3956.7778      1920.3708      0.9969611
   2915000  -636.3657       98.113084     -734.47879      259.17249     -1409.022       1920.3708      0.9969611
   2916000  -650.01629      122.66152     -772.67781      324.01889     -716.44786      1920.3708      0.9969611
   2917000  -631.89957      125.26571     -757.16528      330.89804      116.43847      1920.3708      0.9969611
   2918000  -645.84542      123.42651     -769.27192      326.03965     -660.52644      1920.3708      0.9969611
   2919000  -647.86986      114.04867     -761.91853      301.26745      1057.8468      1920.3708      0.9969611
   2920000  -663.24204      98.060855     -761.30289      259.03453     -817.49144      1920.3708      0.9969611
   2921000  -645.36778      123.361       -768.72877      325.8666       680.67518      1920.3708      0.9969611
   2922000  -648.2877       107.87797     -756.16567      284.96711      3316.1551      1920.3708      0.9969611
   2923000  -616.9979       110.47955     -727.47746      291.83938      3184.0515      1920.3708      0.9969611
   2924000  -636.02295      107.31517     -743.33812      283.48043     -772.89541      1920.3708      0.9969611
   2925000  -653.71305      112.12427     -765.83732      296.184        264.4877       1920.3708      0.9969611
   2926000  -628.23937      121.04706     -749.28644      319.75418     -1914.6139      1920.3708      0.9969611
   2927000  -656.21523      99.220443     -755.43567      262.09766     -306.63154      1920.3708      0.9969611
   2928000  -637.36585      110.27092     -747.63677      291.28827      54.730286      1920.3708      0.9969611
   2929000  -664.18505      112.91812     -777.10317      298.28101     -983.62854      1920.3708      0.9969611
   2930000  -636.29135      126.10532     -762.39668      333.11593      594.56336      1920.3708      0.9969611
   2931000  -651.74129      119.16639     -770.90769      314.78626      2643.4122      1920.3708      0.9969611
   2932000  -661.02578      105.12751     -766.15329      277.70159     -233.47585      1920.3708      0.9969611
   2933000  -666.16429      119.28882     -785.45311      315.10965     -2016.2837      1920.3708      0.9969611
   2934000  -634.20459      125.47646     -759.68105      331.45473      2194.3608      1920.3708      0.9969611
   2935000  -625.0779       135.5446      -760.6225       358.05044      7.8994937      1920.3708      0.9969611
   2936000  -648.02831      116.15595     -764.18427      306.83398      2412.754       1920.3708      0.9969611
   2937000  -636.04585      102.02545     -738.0713       269.50728     -481.11851      1920.3708      0.9969611
   2938000  -634.70029      105.63        -740.33029      279.02896     -781.27768      1920.3708      0.9969611
   2939000  -677.64646      106.84044     -784.4869       282.22641      1844.1753      1920.3708      0.9969611
   2940000  -675.93966      104.34279     -780.28245      275.6287      -189.47956      1920.3708      0.9969611
   2941000  -667.57587      116.19711     -783.77298      306.94269     -1523.4382      1920.3708      0.9969611
   2942000  -650.46548      111.05541     -761.52088      293.36053      249.71399      1920.3708      0.9969611
   2943000  -679.17857      101.61675     -780.79532      268.42766     -333.54381      1920.3708      0.9969611
   2944000  -670.08573      95.958688     -766.04442      253.4815      -1487.8738      1920.3708      0.9969611
   2945000  -626.58912      115.61124     -742.20036      305.39508      469.16638      1920.3708      0.9969611
   2946000  -666.65102      99.657451     -766.30847      263.25204     -1057.4041      1920.3708      0.9969611
   2947000  -648.90649      98.072148     -746.97864      259.06436     -2724.5301      1920.3708      0.9969611
   2948000  -663.97161      121.47833     -785.44994      320.89341     -3564.8643      1920.3708      0.9969611
   2949000  -650.81125      116.39644     -767.2077       307.46925     -2741.1301      1920.3708      0.9969611
   2950000  -637.3819       117.56902     -754.95093      310.56669     -1708.4675      1920.3708      0.9969611
   2951000  -652.7076       109.70748     -762.41509      289.7999       820.17495      1920.3708      0.9969611
   2952000  -642.26265      101.21031     -743.47296      267.35402      1728.7062      1920.3708      0.9969611
   2953000  -649.96011      117.47652     -767.43663      310.32234     -143.34722      1920.3708      0.9969611
   2954000  -647.02851      115.84735     -762.87586      306.01878      2797.453       1920.3708      0.9969611
   2955000  -659.58396      122.40741     -781.99136      323.34762     -3246.6288      1920.3708      0.9969611
   2956000  -639.24186      115.9246      -755.16646      306.22285      1381.5694      1920.3708      0.9969611
   2957000  -655.87506      115.37743     -771.25249      304.77747     -2825.5673      1920.3708      0.9969611
   2958000  -637.77937      122.5187      -760.29807      323.64162      2076.1143      1920.3708      0.9969611
   2959000  -641.05274      116.31413     -757.36687      307.2518      -2009.9899      1920.3708      0.9969611
   2960000  -636.39689      118.19238     -754.58927      312.21334      418.76519      1920.3708      0.9969611
   2961000  -635.13719      120.8202      -755.95739      319.1549      -127.2631       1920.3708      0.9969611
   2962000  -626.34159      116.73476     -743.07635      308.36295     -157.73715      1920.3708      0.9969611
   2963000  -641.88259      107.72729     -749.60988      284.56907     -980.09219      1920.3708      0.9969611
   2964000  -596.43078      124.88967     -721.32046      329.90471     -34.188567      1920.3708      0.9969611
   2965000  -657.7141       119.55946     -777.27356      315.82457      765.71933      1920.3708      0.9969611
   2966000  -671.23645      93.677374     -764.91382      247.45526      3906.48        1920.3708      0.9969611
   2967000  -658.14105      110.97164     -769.1127       293.13927     -635.91893      1920.3708      0.9969611
   2968000  -627.57621      126.50106     -754.07727      334.1613      -598.60761      1920.3708      0.9969611
   2969000  -626.69031      109.41898     -736.10928      289.03778     -225.2668       1920.3708      0.9969611
   2970000  -670.36551      109.65594     -780.02144      289.66374     -1727.5389      1920.3708      0.9969611
   2971000  -655.23114      118.27208     -773.50322      312.42388      1816.5308      1920.3708      0.9969611
   2972000  -673.98265      117.54639     -791.52904      310.50691      1265.6883      1920.3708      0.9969611
   2973000  -658.84702      113.55022     -772.39724      299.95076     -807.53762      1920.3708      0.9969611
   2974000  -661.86477      115.88337     -777.74814      306.11393      915.24606      1920.3708      0.9969611
   2975000  -662.98735      103.36145     -766.3488       273.03642     -350.22038      1920.3708      0.9969611
   2976000  -630.17613      110.89223     -741.06836      292.9295      -411.36177      1920.3708      0.9969611
   2977000  -633.6103       111.45407     -745.06437      294.41363     -391.11243      1920.3708      0.9969611
   2978000  -645.42791      121.84935     -767.27726      321.87348      1220.8974      1920.3708      0.9969611
   2979000  -622.8045       120.56721     -743.37172      318.48663     -1030.9439      1920.3708      0.9969611
   2980000  -640.41153      115.899       -756.31053      306.15521     -710.76227      1920.3708      0.9969611
   2981000  -641.60805      118.32608     -759.93412      312.56651      3438.6891      1920.3708      0.9969611
   2982000  -665.98617      100.03436     -766.02054      264.24769      1076.0644      1920.3708      0.9969611
   2983000  -634.07465      112.85357     -746.92822      298.11051      1771.8271      1920.3708      0.9969611
   2984000  -640.78054      104.92071     -745.70125      277.1553       1668.6341      1920.3708      0.9969611
   2985000  -634.26805      127.76028     -762.02833      337.4876       2832.5071      1920.3708      0.9969611
   2986000  -646.89508      115.09715     -761.99223      304.03707     -637.29675      1920.3708      0.9969611
   2987000  -660.4065       116.65754     -777.06404      308.15896     -1926.4606      1920.3708      0.9969611
   2988000  -670.63315      106.57389     -777.20704      281.52229     -438.62452      1920.3708      0.9969611
   2989000  -631.10126      118.7445      -749.84576      313.67182      817.18387      1920.3708      0.9969611
   2990000  -657.01901      103.97938     -760.99839      274.66873     -2760.4783      1920.3708      0.9969611
   2991000  -643.27864      110.35024     -753.62888      291.4978      -805.24159      1920.3708      0.9969611
   2992000  -649.17187      108.64288     -757.81475      286.98767     -417.92306      1920.3708      0.9969611
   2993000  -663.94671      106.67199     -770.6187       281.78143     -2073.3314      1920.3708      0.9969611
   2994000  -625.68579      117.78366     -743.46945      311.13367      1326.7091      1920.3708      0.9969611
   2995000  -629.65426      111.26462     -740.91889      293.91319     -1023.2241      1920.3708      0.9969611
   2996000  -658.46213      115.47157     -773.9337       305.02613     -4146.5321      1920.3708      0.9969611
   2997000  -637.96404      115.39526     -753.35931      304.82456     -2726.4669      1920.3708      0.9969611
   2998000  -642.44741      120.20422     -762.65163      317.52776     -652.81333      1920.3708      0.9969611
   2999000  -673.71933      106.40308     -780.12241      281.07109      1082.719       1920.3708      0.9969611
   3000000  -654.85827      107.26406     -762.12233      283.34543     -523.12676      1920.3708      0.9969611
Loop time of 1782.07 on 1 procs for 2000000 steps with 192 atoms

Performance: 96.966 ns/day, 0.248 hours/ns, 1122.292 timesteps/s
99.7% CPU use with 1 MPI tasks x 1 OpenMP threads

MPI task timing breakdown:
Section |  min time  |  avg time  |  max time  |%varavg| %total
---------------------------------------------------------------
Pair    | 1431.6     | 1431.6     | 1431.6     |   0.0 | 80.33
Bond    | 0.11118    | 0.11118    | 0.11118    |   0.0 |  0.01
Kspace  | 225.22     | 225.22     | 225.22     |   0.0 | 12.64
Neigh   | 71.575     | 71.575     | 71.575     |   0.0 |  4.02
Comm    | 27.148     | 27.148     | 27.148     |   0.0 |  1.52
Output  | 0.47646    | 0.47646    | 0.47646    |   0.0 |  0.03
Modify  | 21.345     | 21.345     | 21.345     |   0.0 |  1.20
Other   |            | 4.614      |            |       |  0.26

Nlocal:            192 ave         192 max         192 min
Histogram: 1 0 0 0 0 0 0 0 0 0
Nghost:           4602 ave        4602 max        4602 min
Histogram: 1 0 0 0 0 0 0 0 0 0
Neighs:          69158 ave       69158 max       69158 min
Histogram: 1 0 0 0 0 0 0 0 0 0

Total # of neighbors = 69158
Ave neighs/atom = 360.19792
Ave special neighs/atom = 2
Neighbor list builds = 55922
Dangerous builds = 0

# write data file
write_data data.after_prod.lmp
System init for write_data ...
PPPM initialization ...
  using 12-bit tables for long-range coulomb (src/kspace.cpp:342)
  G vector (1/distance) = 0.31260513
  grid = 12 12 12
  stencil order = 5
  estimated absolute RMS force accuracy = 0.0021455329
  estimated relative force accuracy = 6.4612085e-06
  using double precision FFTW3
  3d grid and FFT values/proc = 6859 1728
Generated 1 of 1 mixed pair_coeff terms from geometric mixing rule

# clean up
undump dPROD
unfix fTHERMO
unfix fMOM
unfix fSHAKE
Total wall time: 0:44:40
