LAMMPS (23 Jun 2022 - Update 4)
  using 1 OpenMP thread(s) per MPI task
# created by fftool

# System settings
units real
boundary p p p  # Periodic boundary conditions

# definition of atoms, bonds, angles
atom_style full
bond_style harmonic
angle_style harmonic

# definition of pair potentials
special_bonds lj/coul 0.0 0.0 0.5
pair_style lj/cut/coul/long 10.0 10.0
pair_modify mix geometric tail yes
kspace_style pppm 1.0e-5

# read data file
read_data data.lmp
Reading data file ...
  orthogonal box = (0 0 0) to (9.865483 9.865483 9.865483)
  1 by 1 by 1 MPI processor grid
  reading atoms ...
  96 atoms
  scanning bonds ...
  1 = max bonds/atom
  scanning angles ...
  1 = max angles/atom
  reading bonds ...
  64 bonds
  reading angles ...
  32 angles
Finding 1-2 1-3 1-4 neighbors ...
  special bond factors lj:    0        0        0.5
  special bond factors coul:  0        0        0.5
     2 = max # of 1-2 neighbors
     1 = max # of 1-3 neighbors
     1 = max # of 1-4 neighbors
     2 = max # of special neighbors
  special bonds CPU = 0.001 seconds
  read_data CPU = 0.006 seconds

# definition of LJ parameters
pair_coeff    1    1     0.000000     0.000000  # Hw Hw
pair_coeff    2    2     0.162876     3.153970  # Ow-Ow

############################################

# remove energy hotspots
minimize 1.0e-4 1.0e-6 100 1000
WARNING: Using 'neigh_modify every 1 delay 0 check yes' setting during minimization (src/min.cpp:187)
PPPM initialization ...
  using 12-bit tables for long-range coulomb (src/kspace.cpp:342)
  G vector (1/distance) = 0.30847861
  grid = 9 9 9
  stencil order = 5
  estimated absolute RMS force accuracy = 0.0027675926
  estimated relative force accuracy = 8.334523e-06
  using double precision FFTW3
  3d grid and FFT values/proc = 4096 729
Generated 1 of 1 mixed pair_coeff terms from geometric mixing rule
Neighbor list info ...
  update every 1 steps, delay 0 steps, check yes
  max neighbors/atom: 2000, page size: 100000
  master list distance cutoff = 12
  ghost atom cutoff = 12
  binsize = 6, bins = 2 2 2
  1 neighbor lists, perpetual/occasional/extra = 1 0 0
  (1) pair lj/cut/coul/long, perpetual
      attributes: half, newton on
      pair build: half/bin/newton
      stencil: half/bin/3d
      bin: standard
Per MPI rank memory allocation (min/avg/max) = 8.326 | 8.326 | 8.326 Mbytes
   Step          Temp          E_pair         E_mol          TotEng         Press
         0   0              699783.11      7.0695082e-09  699783.11      1.9998962e+08
       100   0             -490.08551      42.297697     -447.78782     -8022.9707
Loop time of 0.107469 on 1 procs for 100 steps with 96 atoms

99.6% CPU use with 1 MPI tasks x 1 OpenMP threads

Minimization stats:
  Stopping criterion = max iterations
  Energy initial, next-to-last, final =
      699783.109607733  -447.544892323257  -447.787815809309
  Force two-norm initial, final = 11925714 20.171462
  Force max component initial, final = 8254873.4 4.5062711
  Final line search alpha, max atom move = 0.018039907 0.081292713
  Iterations, force evaluations = 100 176

MPI task timing breakdown:
Section |  min time  |  avg time  |  max time  |%varavg| %total
---------------------------------------------------------------
Pair    | 0.09073    | 0.09073    | 0.09073    |   0.0 | 84.42
Bond    | 0.0003479  | 0.0003479  | 0.0003479  |   0.0 |  0.32
Kspace  | 0.010805   | 0.010805   | 0.010805   |   0.0 | 10.05
Neigh   | 0.0028901  | 0.0028901  | 0.0028901  |   0.0 |  2.69
Comm    | 0.0021135  | 0.0021135  | 0.0021135  |   0.0 |  1.97
Output  | 9.066e-06  | 9.066e-06  | 9.066e-06  |   0.0 |  0.01
Modify  | 0          | 0          | 0          |   0.0 |  0.00
Other   |            | 0.0005741  |            |       |  0.53

Nlocal:             96 ave          96 max          96 min
Histogram: 1 0 0 0 0 0 0 0 0 0
Nghost:           3798 ave        3798 max        3798 min
Histogram: 1 0 0 0 0 0 0 0 0 0
Neighs:          34701 ave       34701 max       34701 min
Histogram: 1 0 0 0 0 0 0 0 0 0

Total # of neighbors = 34701
Ave neighs/atom = 361.46875
Ave special neighs/atom = 2
Neighbor list builds = 4
Dangerous builds = 0
reset_timestep 0

# constrain water bonds and angles
fix fSHAKE all shake 0.0001 20 0 b 1 a 1
       0 = # of size 2 clusters
       0 = # of size 3 clusters
       0 = # of size 4 clusters
      32 = # of frozen angles
  find clusters CPU = 0.000 seconds

# remove Center of Mass movement every 100 steps
fix fMOM all momentum 100 linear 1 1 1

# define the neighbor list
neighbor 2.0 bin

# IMPORTANT: timestep and temperature and pressure
timestep 1.0
variable vTK equal 298.15
variable vPBAR equal 1.0

# randomize velocities
velocity all create ${vTK} 51591
velocity all create 298.15 51591

# thermostat (solving the ODE)
fix fTHERMO all nvt temp ${vTK} ${vTK} 100
fix fTHERMO all nvt temp 298.15 ${vTK} 100
fix fTHERMO all nvt temp 298.15 298.15 100

# print settings
thermo 1000
thermo_style custom step etotal ke pe temp press vol density
# trajectory output
dump dEQUI all custom 1000 equi.lammpstrj id element xu yu zu
dump_modify dEQUI element H O sort id

# equilibration
# 1 ns
run 1000000
PPPM initialization ...
  using 12-bit tables for long-range coulomb (src/kspace.cpp:342)
  G vector (1/distance) = 0.30847861
  grid = 9 9 9
  stencil order = 5
  estimated absolute RMS force accuracy = 0.0027675926
  estimated relative force accuracy = 8.334523e-06
  using double precision FFTW3
  3d grid and FFT values/proc = 4096 729
Generated 1 of 1 mixed pair_coeff terms from geometric mixing rule
Per MPI rank memory allocation (min/avg/max) = 9.334 | 9.334 | 9.334 Mbytes
   Step         TotEng         KinEng         PotEng          Temp          Press          Volume        Density
         0  -434.09562      55.989897     -490.08551      298.15        -3061.7694      960.18531      0.99696118
      1000  -325.32054      49.772172     -375.09271      265.0402      -394.92512      960.18531      0.99696118
      2000  -307.75907      54.245216     -362.00429      288.85946      3314.9514      960.18531      0.99696118
      3000  -344.02247      52.8563       -396.87877      281.46339     -309.82067      960.18531      0.99696118
      4000  -329.97589      55.778967     -385.75485      297.02678      4161.0057      960.18531      0.99696118
      5000  -330.13281      57.940621     -388.07344      308.53774      1967.3146      960.18531      0.99696118
      6000  -330.89285      55.534388     -386.42724      295.72439     -2917.6728      960.18531      0.99696118
      7000  -360.06622      50.642862     -410.70908      269.67668     -3457.4607      960.18531      0.99696118
      8000  -338.0422       49.389756     -387.43196      263.0038      -2579.7337      960.18531      0.99696118
      9000  -319.14382      57.991233     -377.13505      308.80725     -1788.3038      960.18531      0.99696118
     10000  -332.4512       62.032557     -394.48375      330.32758     -4868.6541      960.18531      0.99696118
     11000  -344.07105      56.101338     -400.17239      298.74343     -2062.0208      960.18531      0.99696118
     12000  -333.07376      54.283509     -387.35727      289.06337      1733.6836      960.18531      0.99696118
     13000  -340.63273      56.978044     -397.61077      303.41195      149.0418       960.18531      0.99696118
     14000  -331.01769      51.612842     -382.63053      274.84189     -2258.3529      960.18531      0.99696118
     15000  -330.85406      58.566974     -389.42103      311.87311     -1393.1332      960.18531      0.99696118
     16000  -323.36923      50.774954     -374.14418      270.38008     -2286.1625      960.18531      0.99696118
     17000  -350.26642      53.223047     -403.48947      283.41634      3413.3315      960.18531      0.99696118
     18000  -325.13095      62.984023     -388.11498      335.3942      -652.89586      960.18531      0.99696118
     19000  -325.37096      60.719679     -386.09064      323.33641      1722.8871      960.18531      0.99696118
     20000  -351.63728      55.52416      -407.16144      295.66992     -2123.7456      960.18531      0.99696118
     21000  -330.26001      58.201177     -388.46119      309.92522      1345.1933      960.18531      0.99696118
     22000  -344.27203      57.544523     -401.81655      306.42849     -2988.8774      960.18531      0.99696118
     23000  -332.02117      59.12515      -391.14632      314.84544      57.807305      960.18531      0.99696118
     24000  -331.34589      59.446594     -390.79248      316.55715     -3471.9672      960.18531      0.99696118
     25000  -334.17831      51.916949     -386.09526      276.46128      348.56965      960.18531      0.99696118
     26000  -335.68798      52.504587     -388.19256      279.59049     -2085.5105      960.18531      0.99696118
     27000  -341.68466      53.64195      -395.32661      285.64703     -1973.6327      960.18531      0.99696118
     28000  -334.04423      54.993978     -389.03821      292.84667     -2948.2655      960.18531      0.99696118
     29000  -331.23915      57.740783     -388.97993      307.47359     -2036.4606      960.18531      0.99696118
     30000  -309.51465      53.927343     -363.44199      287.16676     -1260.4571      960.18531      0.99696118
     31000  -341.09615      53.294719     -394.39087      283.798       -971.00546      960.18531      0.99696118
     32000  -352.31745      47.394827     -399.71228      252.38067     -2273.5378      960.18531      0.99696118
     33000  -343.42014      51.459198     -394.87934      274.02372     -1063.1869      960.18531      0.99696118
     34000  -330.01198      59.440799     -389.45278      316.52629      1327.293       960.18531      0.99696118
     35000  -346.85609      51.232299     -398.08839      272.81547     -4752.5137      960.18531      0.99696118
     36000  -328.73508      55.958881     -384.69396      297.98484     -1251.1122      960.18531      0.99696118
     37000  -349.60554      49.043793     -398.64933      261.16152     -28.703719      960.18531      0.99696118
     38000  -329.53748      61.911506     -391.44899      329.68297     -1477.566       960.18531      0.99696118
     39000  -326.4602       60.718931     -387.17913      323.33243     -233.63522      960.18531      0.99696118
     40000  -331.59432      51.897094     -383.49142      276.35555     -544.27121      960.18531      0.99696118
     41000  -339.93479      50.404859     -390.33965      268.4093       0.16100602     960.18531      0.99696118
     42000  -348.33548      61.225563     -409.56104      326.03028      1366.434       960.18531      0.99696118
     43000  -339.00415      50.608186     -389.61233      269.49203      1578.3084      960.18531      0.99696118
     44000  -332.23269      58.860279     -391.09297      313.43498      5896.4951      960.18531      0.99696118
     45000  -331.0212       55.180159     -386.20136      293.83809     -1397.9765      960.18531      0.99696118
     46000  -324.18696      52.843237     -377.03019      281.39383      4682.6324      960.18531      0.99696118
     47000  -322.80958      59.672772     -382.48235      317.76156      1752.5002      960.18531      0.99696118
     48000  -324.9986       64.8984       -389.897        345.58839      90.745434      960.18531      0.99696118
     49000  -346.85418      48.922429     -395.7766       260.51526     -1089.7369      960.18531      0.99696118
     50000  -358.9317       56.879628     -415.81133      302.88788      330.9542       960.18531      0.99696118
     51000  -355.00976      50.697743     -405.70751      269.96893      791.48183      960.18531      0.99696118
     52000  -339.51197      61.447521     -400.95949      327.21222      1666.7987      960.18531      0.99696118
     53000  -347.12576      56.557055     -403.68282      301.17016     -2850.1549      960.18531      0.99696118
     54000  -340.81551      56.981344     -397.79686      303.42953     -3319.9174      960.18531      0.99696118
     55000  -324.41261      58.49563      -382.90824      311.4932       108.70648      960.18531      0.99696118
     56000  -323.25371      59.635815     -382.88953      317.56476      1419.6808      960.18531      0.99696118
     57000  -345.60306      42.729963     -388.33302      227.53995     -2801.6654      960.18531      0.99696118
     58000  -341.08565      56.906033     -397.99169      303.02849     -5442.7842      960.18531      0.99696118
     59000  -337.4808       57.062671     -394.54347      303.8626       396.10991      960.18531      0.99696118
     60000  -335.95624      59.061157     -395.0174       314.50467      650.63941      960.18531      0.99696118
     61000  -337.50919      55.225934     -392.73513      294.08185     -1306.4353      960.18531      0.99696118
     62000  -346.898        50.770085     -397.66808      270.35415      102.56582      960.18531      0.99696118
     63000  -331.05785      63.534046     -394.5919       338.32311     -3286.5006      960.18531      0.99696118
     64000  -341.29019      45.149775     -386.43996      240.42562     -1673.6614      960.18531      0.99696118
     65000  -338.43218      49.163581     -387.59577      261.79941     -515.67541      960.18531      0.99696118
     66000  -337.57803      61.249934     -398.82796      326.16006     -450.0381       960.18531      0.99696118
     67000  -332.70361      53.707972     -386.41158      285.9986       2707.2288      960.18531      0.99696118
     68000  -332.15261      55.558776     -387.71138      295.85425      626.78977      960.18531      0.99696118
     69000  -330.82324      59.221271     -390.04451      315.35729      3121.44        960.18531      0.99696118
     70000  -328.17517      50.167761     -378.34293      267.14673      1385.5091      960.18531      0.99696118
     71000  -332.21503      53.419134     -385.63416      284.46051      646.40384      960.18531      0.99696118
     72000  -331.69672      54.40755      -386.10427      289.7239       2417.1426      960.18531      0.99696118
     73000  -331.23         57.571511     -388.80152      306.5722      -109.66327      960.18531      0.99696118
     74000  -342.05468      57.020459     -399.07513      303.63782     -1929.3033      960.18531      0.99696118
     75000  -347.87086      44.141763     -392.01262      235.05788     -3310.9639      960.18531      0.99696118
     76000  -346.67434      54.232468     -400.90681      288.79158      339.9972       960.18531      0.99696118
     77000  -334.71449      61.344003     -396.05849      326.66098     -978.08351      960.18531      0.99696118
     78000  -354.28196      45.623422     -399.90538      242.94782     -3763.849       960.18531      0.99696118
     79000  -333.7963       50.518841     -384.31514      269.01626     -4119.485       960.18531      0.99696118
     80000  -333.9276       53.428931     -387.35653      284.51269     -3268.3444      960.18531      0.99696118
     81000  -345.0776       55.745776     -400.82337      296.85004      1170.9994      960.18531      0.99696118
     82000  -335.0916       55.451998     -390.5436       295.28565      459.18349      960.18531      0.99696118
     83000  -336.72921      50.136698     -386.8659       266.98132     -2946.1763      960.18531      0.99696118
     84000  -337.77734      55.526938     -393.30428      295.68471      1339.9881      960.18531      0.99696118
     85000  -336.52032      48.970846     -385.49117      260.77308      522.97868      960.18531      0.99696118
     86000  -329.80536      55.172508     -384.97786      293.79735      1884.9541      960.18531      0.99696118
     87000  -338.66457      50.316905     -388.98148      267.94093     -4768.4503      960.18531      0.99696118
     88000  -328.15006      54.520903     -382.67097      290.32751      912.95099      960.18531      0.99696118
     89000  -329.62068      60.043205     -389.66388      319.73414      806.59994      960.18531      0.99696118
     90000  -349.29748      53.657606     -402.95508      285.73039      1997.2312      960.18531      0.99696118
     91000  -329.57381      50.849892     -380.4237       270.77912      1350.9504      960.18531      0.99696118
     92000  -335.24346      55.887129     -391.13059      297.60275     -3888.8862      960.18531      0.99696118
     93000  -323.61425      65.684603     -389.29885      349.77497     -3174.4236      960.18531      0.99696118
     94000  -338.02472      51.001148     -389.02587      271.58458     -2086.8339      960.18531      0.99696118
     95000  -327.4244       55.901196     -383.32559      297.67766     -1119.3189      960.18531      0.99696118
     96000  -344.82089      52.394199     -397.21509      279.00266     -1233.9082      960.18531      0.99696118
     97000  -331.72496      55.0884       -386.81336      293.34947     -4496.7258      960.18531      0.99696118
     98000  -342.02275      56.881195     -398.90394      302.89622      1636.568       960.18531      0.99696118
     99000  -333.73484      63.337716     -397.07255      337.27764     -218.71621      960.18531      0.99696118
    100000  -347.74812      54.292214     -402.04034      289.10973      693.13267      960.18531      0.99696118
    101000  -354.92961      41.886444     -396.81605      223.04816      73.570976      960.18531      0.99696118
    102000  -340.10557      59.628895     -399.73446      317.52791      1115.5648      960.18531      0.99696118
    103000  -348.34907      52.771634     -401.1207       281.01254     -2229.6476      960.18531      0.99696118
    104000  -337.97128      64.253969     -402.22525      342.15675      2267.316       960.18531      0.99696118
    105000  -325.96055      59.199357     -385.1599       315.24059      2769.6108      960.18531      0.99696118
    106000  -327.05904      46.308254     -373.3673       246.5946      -252.48343      960.18531      0.99696118
    107000  -345.98707      55.571168     -401.55823      295.92024     -5310.068       960.18531      0.99696118
    108000  -339.53098      55.870454     -395.40143      297.51396      2080.9279      960.18531      0.99696118
    109000  -336.37092      50.992926     -387.36385      271.54079     -1719.8382      960.18531      0.99696118
    110000  -332.93902      60.089308     -393.02833      319.97965     -1219.1473      960.18531      0.99696118
    111000  -343.80579      58.177271     -401.98306      309.79792      490.26563      960.18531      0.99696118
    112000  -328.60665      58.037818     -386.64446      309.05532     -757.26696      960.18531      0.99696118
    113000  -342.25117      56.406099     -398.65727      300.36631     -2275.7779      960.18531      0.99696118
    114000  -330.5874       56.190139     -386.77754      299.21631      1211.9227      960.18531      0.99696118
    115000  -332.64372      54.623428     -387.26714      290.87346     -1764.6553      960.18531      0.99696118
    116000  -317.94167      60.103569     -378.04523      320.05559      2815.2113      960.18531      0.99696118
    117000  -343.00894      42.620567     -385.62951      226.95741     -1157.6281      960.18531      0.99696118
    118000  -339.71427      50.046413     -389.76069      266.50055     -3088.9151      960.18531      0.99696118
    119000  -340.56681      48.370418     -388.93723      257.57576      2232.1378      960.18531      0.99696118
    120000  -331.95182      63.306847     -395.25866      337.11326     -4122.2949      960.18531      0.99696118
    121000  -328.0982       55.43404      -383.53224      295.19003      555.1528       960.18531      0.99696118
    122000  -341.05346      55.932356     -396.98582      297.84359     -564.35159      960.18531      0.99696118
    123000  -349.13254      43.900608     -393.03314      233.77372     -4797.7158      960.18531      0.99696118
    124000  -324.04288      66.919366     -390.96225      356.35017      1129.8368      960.18531      0.99696118
    125000  -344.55332      51.652205     -396.20552      275.0515      -3514.1405      960.18531      0.99696118
    126000  -331.4516       53.335607     -384.78721      284.01573     -635.43172      960.18531      0.99696118
    127000  -320.27471      57.840183     -378.11489      308.0029       491.01901      960.18531      0.99696118
    128000  -332.05282      50.140702     -382.19352      267.00264     -61.702208      960.18531      0.99696118
    129000  -318.26319      65.76827      -384.03146      350.2205       139.08039      960.18531      0.99696118
    130000  -332.94608      53.406943     -386.35302      284.3956       1744.3252      960.18531      0.99696118
    131000  -348.48036      51.181668     -399.66203      272.54586     -901.85381      960.18531      0.99696118
    132000  -339.49631      47.154384     -386.6507       251.10029      994.52068      960.18531      0.99696118
    133000  -334.16324      60.646769     -394.81001      322.94816      738.31578      960.18531      0.99696118
    134000  -336.44056      60.184028     -396.62459      320.48403     -2679.6418      960.18531      0.99696118
    135000  -321.23533      61.187296     -382.42262      325.82651     -1523.6442      960.18531      0.99696118
    136000  -350.85961      50.364567     -401.22417      268.19474     -3382.9306      960.18531      0.99696118
    137000  -332.41576      51.647664     -384.06343      275.02732     -2117.6038      960.18531      0.99696118
    138000  -332.46389      63.110889     -395.57478      336.06977     -224.17702      960.18531      0.99696118
    139000  -328.24494      59.051475     -387.29642      314.45311      1450.9528      960.18531      0.99696118
    140000  -348.32495      45.583438     -393.90839      242.7349       2157.1015      960.18531      0.99696118
    141000  -333.22848      50.494083     -383.72256      268.88442      2635.6425      960.18531      0.99696118
    142000  -330.64858      54.452868     -385.10144      289.96522     -2048.9748      960.18531      0.99696118
    143000  -340.8751       51.098588     -391.97368      272.10345      2870.1107      960.18531      0.99696118
    144000  -349.94934      51.790229     -401.73957      275.78649     -1406.584       960.18531      0.99696118
    145000  -321.12374      67.472877     -388.59662      359.29765      385.78619      960.18531      0.99696118
    146000  -330.53622      60.008028     -390.54425      319.54682     -866.10084      960.18531      0.99696118
    147000  -343.08212      51.305464     -394.38758      273.20508      233.79322      960.18531      0.99696118
    148000  -328.58833      58.597754     -387.18609      312.03702     -26.852962      960.18531      0.99696118
    149000  -342.3138       56.202786     -398.51658      299.28365     -871.68828      960.18531      0.99696118
    150000  -320.65054      59.219195     -379.86974      315.34623      1142.3673      960.18531      0.99696118
    151000  -331.15079      56.486254     -387.63704      300.79313     -148.77417      960.18531      0.99696118
    152000  -320.22801      56.140388     -376.36839      298.95138      2930.2874      960.18531      0.99696118
    153000  -338.16053      51.533855     -389.69438      274.42128     -1525.4367      960.18531      0.99696118
    154000  -325.17558      65.275055     -390.45064      347.5941      -2712.8042      960.18531      0.99696118
    155000  -310.26878      56.882777     -367.15155      302.90465     -4548.4448      960.18531      0.99696118
    156000  -338.36704      58.736223     -397.10326      312.77437     -4529.0598      960.18531      0.99696118
    157000  -327.76763      67.576476     -395.34411      359.84932      508.01412      960.18531      0.99696118
    158000  -323.09692      56.377116     -379.47404      300.21197     -2262.6899      960.18531      0.99696118
    159000  -343.64574      47.035949     -390.68168      250.46962     -735.33083      960.18531      0.99696118
    160000  -332.79075      51.626812     -384.41756      274.91628      5766.5247      960.18531      0.99696118
    161000  -337.82211      50.722951     -388.54506      270.10316      26.228212      960.18531      0.99696118
    162000  -335.32396      56.53556      -391.85952      301.0557       4026.3422      960.18531      0.99696118
    163000  -334.63552      55.387468     -390.02299      294.94203      2004.0602      960.18531      0.99696118
    164000  -356.4745       47.945717     -404.42021      255.3142      -1501.0872      960.18531      0.99696118
    165000  -328.31831      60.942848     -389.26116      324.5248      -4258.2928      960.18531      0.99696118
    166000  -337.80117      52.366591     -390.16776      278.85565      251.92397      960.18531      0.99696118
    167000  -343.22514      55.490726     -398.71586      295.49189      141.13374      960.18531      0.99696118
    168000  -312.88514      56.391224     -369.27636      300.2871      -3444.9463      960.18531      0.99696118
    169000  -311.09405      65.597313     -376.69136      349.31015      2986.5305      960.18531      0.99696118
    170000  -322.97846      56.486926     -379.46538      300.79671     -1986.5025      960.18531      0.99696118
    171000  -348.19354      45.432083     -393.62562      241.92893     -1283.7196      960.18531      0.99696118
    172000  -335.39962      48.956298     -384.35592      260.69561     -1522.2058      960.18531      0.99696118
    173000  -351.15043      50.822166     -401.9726       270.63148      3198.8231      960.18531      0.99696118
    174000  -322.11502      52.556294     -374.67131      279.86583     -2055.7502      960.18531      0.99696118
    175000  -335.67114      57.12075      -392.79189      304.17187     -1116.9406      960.18531      0.99696118
    176000  -332.45784      62.556992     -395.01483      333.12023      628.60876      960.18531      0.99696118
    177000  -333.41629      62.720074     -396.13637      333.98865     -2402.3038      960.18531      0.99696118
    178000  -327.65491      61.194475     -388.84938      325.86473     -802.32231      960.18531      0.99696118
    179000  -340.70809      60.297581     -401.00567      321.08871     -2163.6274      960.18531      0.99696118
    180000  -329.02502      45.941899     -374.96692      244.64373     -401.42413      960.18531      0.99696118
    181000  -334.23045      50.36547      -384.59592      268.19955     -70.374665      960.18531      0.99696118
    182000  -332.67852      57.922135     -390.60065      308.4393      -1917.5847      960.18531      0.99696118
    183000  -337.9285       60.510486     -398.43899      322.22244      4154.5613      960.18531      0.99696118
    184000  -324.9096       66.205694     -391.11529      352.54981     -126.71292      960.18531      0.99696118
    185000  -336.96188      53.824856     -390.78673      286.62101     -60.465753      960.18531      0.99696118
    186000  -304.00594      68.675129     -372.68107      365.69972     -2061.8373      960.18531      0.99696118
    187000  -323.98386      52.465622     -376.44948      279.383       -644.4549       960.18531      0.99696118
    188000  -345.83371      51.566941     -397.40066      274.59746      307.66807      960.18531      0.99696118
    189000  -325.67712      46.005891     -371.68301      244.9845      -5699.1736      960.18531      0.99696118
    190000  -348.23608      48.717714     -396.95379      259.42513     -3395.1051      960.18531      0.99696118
    191000  -337.62413      48.944445     -386.56857      260.63249     -1063.0705      960.18531      0.99696118
    192000  -330.9127       54.186978     -385.09968      288.54934     -364.01971      960.18531      0.99696118
    193000  -310.79164      70.794112     -381.58575      376.98345      2177.1426      960.18531      0.99696118
    194000  -337.16244      54.538532     -391.70097      290.42138      2403.5431      960.18531      0.99696118
    195000  -344.60455      55.540419     -400.14497      295.7565      -1845.6051      960.18531      0.99696118
    196000  -333.0745       55.399696     -388.4742       295.00714      1611.5685      960.18531      0.99696118
    197000  -316.85862      60.148552     -377.00717      320.29512     -260.86675      960.18531      0.99696118
    198000  -334.93078      59.962673     -394.89346      319.3053      -2384.6719      960.18531      0.99696118
    199000  -337.47566      57.915653     -395.39131      308.40478     -3004.4032      960.18531      0.99696118
    200000  -352.16962      43.171039     -395.34066      229.88871      1800.8784      960.18531      0.99696118
    201000  -330.09118      60.243993     -390.33518      320.80335     -2091.7929      960.18531      0.99696118
    202000  -339.44088      56.959718     -396.4006       303.31436     -1573.7571      960.18531      0.99696118
    203000  -322.39366      58.772266     -381.16593      312.96631      1543.5039      960.18531      0.99696118
    204000  -343.69644      50.417207     -394.11365      268.47505     -3779.6225      960.18531      0.99696118
    205000  -350.17818      54.172365     -404.35055      288.47152     -2701.2206      960.18531      0.99696118
    206000  -343.78365      53.562764     -397.34642      285.22535      1463.1786      960.18531      0.99696118
    207000  -320.75715      65.864582     -386.62173      350.73337      3341.4488      960.18531      0.99696118
    208000  -334.94412      61.12644      -396.07056      325.50244     -3486.6824      960.18531      0.99696118
    209000  -341.11972      51.188824     -392.30855      272.58397     -1410.1989      960.18531      0.99696118
    210000  -330.12135      71.681714     -401.80307      381.70999      2135.1578      960.18531      0.99696118
    211000  -348.39017      46.554385     -394.94456      247.90526     -1240.3854      960.18531      0.99696118
    212000  -333.05423      66.476174     -399.5304       353.99014      2129.0526      960.18531      0.99696118
    213000  -346.19341      49.027676     -395.22109      261.0757       2480.7697      960.18531      0.99696118
    214000  -331.20591      67.046944     -398.25286      357.02953      910.77184      960.18531      0.99696118
    215000  -351.31442      52.363606     -403.67802      278.83976     -912.72505      960.18531      0.99696118
    216000  -330.1486       55.475978     -385.62458      295.41335     -1163.2085      960.18531      0.99696118
    217000  -344.02596      54.664822     -398.69078      291.09389      1960.5257      960.18531      0.99696118
    218000  -330.54384      57.915169     -388.45901      308.40221      1346.3283      960.18531      0.99696118
    219000  -333.63846      52.802906     -386.44136      281.17906      72.648479      960.18531      0.99696118
    220000  -344.4844       54.749882     -399.23428      291.54684     -2842.6975      960.18531      0.99696118
    221000  -333.80562      51.448345     -385.25396      273.96593     -1430.3165      960.18531      0.99696118
    222000  -321.50013      57.5384       -379.03853      306.39588     -129.99954      960.18531      0.99696118
    223000  -336.006        47.903348     -383.90935      255.08858     -772.90631      960.18531      0.99696118
    224000  -321.54812      62.801706     -384.34983      334.42335      8317.9606      960.18531      0.99696118
    225000  -332.64032      57.027064     -389.66738      303.67298      803.86344      960.18531      0.99696118
    226000  -331.90406      63.618094     -395.52215      338.77067     -737.37055      960.18531      0.99696118
    227000  -334.6966       51.328716     -386.02531      273.3289      -2745.9815      960.18531      0.99696118
    228000  -326.08228      64.450503     -390.53278      343.2033       2030.7977      960.18531      0.99696118
    229000  -342.46064      50.152105     -392.61275      267.06336     -2242.9254      960.18531      0.99696118
    230000  -329.68561      50.605422     -380.29103      269.47731     -1194.4441      960.18531      0.99696118
    231000  -329.70928      59.101686     -388.81097      314.72049     -2227.7195      960.18531      0.99696118
    232000  -340.62766      60.096302     -400.72396      320.01689     -476.58317      960.18531      0.99696118
    233000  -350.91399      44.95221      -395.8662       239.37357     -3620.3049      960.18531      0.99696118
    234000  -337.7244       55.714513     -393.43891      296.68356     -683.7167       960.18531      0.99696118
    235000  -308.97442      72.281549     -381.25597      384.90416     -2085.69        960.18531      0.99696118
    236000  -332.17307      56.58114      -388.75421      301.29841      500.35256      960.18531      0.99696118
    237000  -339.10862      56.07047      -395.17909      298.57906     -4325.8548      960.18531      0.99696118
    238000  -333.12788      53.31645      -386.44433      283.91371     -1501.5393      960.18531      0.99696118
    239000  -342.9795       43.34229      -386.32179      230.80064     -815.19844      960.18531      0.99696118
    240000  -333.8697       51.56037      -385.43007      274.56247      308.90479      960.18531      0.99696118
    241000  -339.11952      47.924474     -387.04399      255.20108     -2078.2433      960.18531      0.99696118
    242000  -333.1701       54.400428     -387.57053      289.68597     -1350.48        960.18531      0.99696118
    243000  -341.05079      45.101824     -386.15262      240.17028     -5856.6307      960.18531      0.99696118
    244000  -328.39784      50.042863     -378.44071      266.48164      1213.2445      960.18531      0.99696118
    245000  -336.12408      51.224474     -387.34856      272.7738      -85.269324      960.18531      0.99696118
    246000  -338.27072      61.754709     -400.02543      328.84802     -1696.4301      960.18531      0.99696118
    247000  -325.06416      60.531344     -385.59551      322.33352     -2046.6363      960.18531      0.99696118
    248000  -325.88447      57.098728     -382.9832       304.0546      -992.09761      960.18531      0.99696118
    249000  -332.28753      49.836779     -382.12431      265.38423      42.911639      960.18531      0.99696118
    250000  -339.92904      49.516956     -389.446        263.68115      4169.5309      960.18531      0.99696118
    251000  -341.13184      47.402824     -388.53467      252.42325      2327.7733      960.18531      0.99696118
    252000  -328.54586      51.241674     -379.78753      272.86539     -2303.3358      960.18531      0.99696118
    253000  -340.55971      53.449915     -394.00963      284.62443     -5021.4366      960.18531      0.99696118
    254000  -326.10115      54.855878     -380.95703      292.11128     -480.37811      960.18531      0.99696118
    255000  -341.85985      54.834273     -396.69412      291.99623     -1123.4133      960.18531      0.99696118
    256000  -346.68143      49.504243     -396.18567      263.61345      117.94679      960.18531      0.99696118
    257000  -361.29755      47.915149     -409.2127       255.15142     -978.09496      960.18531      0.99696118
    258000  -329.98482      57.956256     -387.94108      308.621       -892.36653      960.18531      0.99696118
    259000  -338.11989      61.916395     -400.03628      329.70901     -819.70392      960.18531      0.99696118
    260000  -354.4923       49.0589       -403.5512       261.24197     -566.13546      960.18531      0.99696118
    261000  -338.35129      46.152371     -384.50366      245.76451      2496.5779      960.18531      0.99696118
    262000  -340.80459      54.483699     -395.28829      290.1294       53.518797      960.18531      0.99696118
    263000  -339.09254      65.134175     -404.22671      346.84391      2691.7827      960.18531      0.99696118
    264000  -347.85316      51.955215     -399.80838      276.66505     -1967.5801      960.18531      0.99696118
    265000  -341.33221      58.666908     -399.99911      312.40527     -1272.4791      960.18531      0.99696118
    266000  -346.98307      47.817509     -394.80058      254.63148      751.04251      960.18531      0.99696118
    267000  -364.09359      45.525718     -409.61931      242.42754      1690.1006      960.18531      0.99696118
    268000  -350.1929       56.605271     -406.79817      301.42691      1757.9669      960.18531      0.99696118
    269000  -361.3227       51.383857     -412.70655      273.62252     -3810.3591      960.18531      0.99696118
    270000  -339.7848       55.889984     -395.67479      297.61796      201.49107      960.18531      0.99696118
    271000  -344.43268      53.400798     -397.83347      284.36287      1836.0886      960.18531      0.99696118
    272000  -327.07172      58.758036     -385.82975      312.89053      490.1052       960.18531      0.99696118
    273000  -302.48968      63.576529     -366.06621      338.54933      2379.289       960.18531      0.99696118
    274000  -331.26285      58.964718     -390.22756      313.99112     -2113.6498      960.18531      0.99696118
    275000  -335.59875      54.380299     -389.97905      289.57878      1008.7483      960.18531      0.99696118
    276000  -342.09241      55.105291     -397.1977       293.43942     -1639.0835      960.18531      0.99696118
    277000  -348.62927      50.468851     -399.09812      268.75006     -996.41396      960.18531      0.99696118
    278000  -344.46141      48.262721     -392.72413      257.00227     -1239.7491      960.18531      0.99696118
    279000  -332.23794      51.492658     -383.7306       274.2019      -2104.1834      960.18531      0.99696118
    280000  -319.54507      68.607477     -388.15255      365.33947     -5188.9449      960.18531      0.99696118
    281000  -332.80144      51.250276     -384.05171      272.9112       848.02568      960.18531      0.99696118
    282000  -329.96698      59.594879     -389.56186      317.34678      2957.3911      960.18531      0.99696118
    283000  -322.40162      53.999947     -376.40157      287.55338     -41.323651      960.18531      0.99696118
    284000  -324.13607      59.709109     -383.84518      317.95506      1057.8987      960.18531      0.99696118
    285000  -339.57493      51.550117     -391.12505      274.50787      2161.5955      960.18531      0.99696118
    286000  -343.81689      53.703618     -397.52051      285.97541     -899.50721      960.18531      0.99696118
    287000  -358.1936       53.949252     -412.14286      287.28343     -2696.3864      960.18531      0.99696118
    288000  -339.81857      59.140392     -398.95896      314.9266      -614.91576      960.18531      0.99696118
    289000  -341.30475      49.955711     -391.26046      266.01755     -1210.2568      960.18531      0.99696118
    290000  -356.02227      49.399395     -405.42167      263.05513     -5288.0905      960.18531      0.99696118
    291000  -355.70829      53.973062     -409.68135      287.41022      835.11319      960.18531      0.99696118
    292000  -344.65964      62.434823     -407.09446      332.46967      1386.9851      960.18531      0.99696118
    293000  -339.59423      53.261332     -392.85556      283.62021     -3407.9094      960.18531      0.99696118
    294000  -343.35145      57.425347     -400.77679      305.79387     -1895.3954      960.18531      0.99696118
    295000  -322.21304      62.789471     -385.00251      334.35819     -1756.5876      960.18531      0.99696118
    296000  -326.54802      59.757461     -386.30548      318.21254     -25.302504      960.18531      0.99696118
    297000  -344.71534      53.631904     -398.34725      285.59353      1550.1592      960.18531      0.99696118
    298000  -317.68862      72.342888     -390.03151      385.23079     -3019.1623      960.18531      0.99696118
    299000  -347.2239       53.208485     -400.43239      283.33879     -4429.0215      960.18531      0.99696118
    300000  -346.07153      46.906511     -392.97804      249.78036     -1795.093       960.18531      0.99696118
    301000  -330.32347      68.043202     -398.36667      362.33467     -589.21063      960.18531      0.99696118
    302000  -335.74667      57.480613     -393.22729      306.08817      884.33508      960.18531      0.99696118
    303000  -339.40252      49.091891     -388.49441      261.41765     -1309.4871      960.18531      0.99696118
    304000  -328.05288      53.812193     -381.86507      286.55358     -3743.9078      960.18531      0.99696118
    305000  -325.2712       58.945552     -384.21675      313.88907     -2976.6358      960.18531      0.99696118
    306000  -335.45688      52.351751     -387.80863      278.77663      1775.6754      960.18531      0.99696118
    307000  -334.3813       45.757612     -380.13891      243.66239     -113.44534      960.18531      0.99696118
    308000  -307.65766      65.064527     -372.72218      346.47302     -243.93281      960.18531      0.99696118
    309000  -319.38522      51.911522     -371.29674      276.43238     -1859.7488      960.18531      0.99696118
    310000  -327.77176      55.35524      -383.127        294.77041     -5230.8644      960.18531      0.99696118
    311000  -326.33195      57.221214     -383.55316      304.70685     -2898.7346      960.18531      0.99696118
    312000  -352.55878      51.124822     -403.6836       272.24315     -1746.805       960.18531      0.99696118
    313000  -345.79127      50.021535     -395.81281      266.36807     -1387.0193      960.18531      0.99696118
    314000  -323.71745      66.040956     -389.7584       351.67258      916.89905      960.18531      0.99696118
    315000  -321.82163      57.209462     -379.03109      304.64427     -2950.4668      960.18531      0.99696118
    316000  -320.90552      58.930039     -379.83556      313.80646     -831.46958      960.18531      0.99696118
    317000  -328.40808      50.719888     -379.12797      270.08685     -1702.5046      960.18531      0.99696118
    318000  -333.6662       54.970166     -388.63636      292.71987     -756.42967      960.18531      0.99696118
    319000  -324.5937       56.300155     -380.89385      299.80215     -160.57446      960.18531      0.99696118
    320000  -340.70516      54.12891      -394.83407      288.24012     -990.7506       960.18531      0.99696118
    321000  -349.13588      51.35469      -400.49057      273.46721      760.72498      960.18531      0.99696118
    322000  -331.22601      61.480229     -392.70623      327.38639      2496.7014      960.18531      0.99696118
    323000  -350.9801       57.449426     -408.42952      305.92209      879.13019      960.18531      0.99696118
    324000  -347.00073      49.551072     -396.55181      263.86282     -3541.5206      960.18531      0.99696118
    325000  -328.99693      45.928597     -374.92553      244.5729      -1479.8725      960.18531      0.99696118
    326000  -350.53156      51.579153     -402.11072      274.66249     -4790.0143      960.18531      0.99696118
    327000  -327.34163      54.854332     -382.19597      292.10304     -3105.5245      960.18531      0.99696118
    328000  -351.80869      44.606128     -396.41482      237.53066     -1481.5737      960.18531      0.99696118
    329000  -330.51215      59.487458     -389.99961      316.77475     -1768.7738      960.18531      0.99696118
    330000  -340.5044       60.97526      -401.47966      324.6974       972.68783      960.18531      0.99696118
    331000  -346.81131      50.162803     -396.97412      267.12033     -2839.7227      960.18531      0.99696118
    332000  -342.12229      59.555886     -401.67818      317.13914     -2332.9139      960.18531      0.99696118
    333000  -339.82169      55.905319     -395.72701      297.69962     -1189.4217      960.18531      0.99696118
    334000  -338.44718      55.794624     -394.2418       297.11016      530.23692      960.18531      0.99696118
    335000  -336.26325      61.991278     -398.25452      330.10777     -4364.035       960.18531      0.99696118
    336000  -330.93829      61.651793     -392.59008      328.29998     -4049.2511      960.18531      0.99696118
    337000  -331.27158      52.080855     -383.35243      277.33409     -3115.6712      960.18531      0.99696118
    338000  -333.56397      58.187147     -391.75112      309.85051     -981.30194      960.18531      0.99696118
    339000  -335.34284      59.294278     -394.63712      315.74605     -76.546546      960.18531      0.99696118
    340000  -321.00905      62.494327     -383.50338      332.78653     -482.14285      960.18531      0.99696118
    341000  -352.34095      41.49753      -393.83848      220.97716     -3998.8932      960.18531      0.99696118
    342000  -334.17856      59.036442     -393.215        314.37306     -3353.1543      960.18531      0.99696118
    343000  -340.11899      53.010546     -393.12954      282.28476     -3817.3955      960.18531      0.99696118
    344000  -354.6362       48.723954     -403.36015      259.45836     -1894.405       960.18531      0.99696118
    345000  -331.12338      59.664005     -390.78739      317.71488      1155.151       960.18531      0.99696118
    346000  -335.28974      59.29673      -394.58647      315.75911     -2761.7457      960.18531      0.99696118
    347000  -345.22054      51.23997      -396.46051      272.85632     -1580.5955      960.18531      0.99696118
    348000  -321.45726      65.995995     -387.45326      351.43315      2059.2412      960.18531      0.99696118
    349000  -342.83922      55.094598     -397.93382      293.38247      148.25271      960.18531      0.99696118
    350000  -333.15309      50.518205     -383.6713       269.01287     -2128.3047      960.18531      0.99696118
    351000  -329.46295      48.774886     -378.23784      259.72958     -1813.746       960.18531      0.99696118
    352000  -314.77692      54.959239     -369.73616      292.66168      4202.8778      960.18531      0.99696118
    353000  -324.70705      59.100108     -383.80716      314.71209      671.70513      960.18531      0.99696118
    354000  -331.94929      53.772801     -385.72209      286.34381      31.312163      960.18531      0.99696118
    355000  -332.87982      54.065105     -386.94493      287.90035     -123.24623      960.18531      0.99696118
    356000  -339.51268      51.733151     -391.24583      275.48254     -706.53844      960.18531      0.99696118
    357000  -322.3348       59.257442     -381.59224      315.5499       2057.7139      960.18531      0.99696118
    358000  -324.50752      60.407334     -384.91486      321.67315     -272.15557      960.18531      0.99696118
    359000  -347.31078      54.081329     -401.39211      287.98675     -2341.8784      960.18531      0.99696118
    360000  -330.7872       66.858189     -397.64539      356.0244      -1362.1181      960.18531      0.99696118
    361000  -337.49667      52.18422      -389.68089      277.88452      2656.5041      960.18531      0.99696118
    362000  -342.99792      50.469741     -393.46766      268.7548       3370.579       960.18531      0.99696118
    363000  -318.96327      64.621939     -383.58521      344.11621     -1461.0579      960.18531      0.99696118
    364000  -334.422        59.160777     -393.58277      315.03515     -3588.0787      960.18531      0.99696118
    365000  -349.91206      49.806066     -399.71812      265.22068     -185.53697      960.18531      0.99696118
    366000  -345.85097      52.025273     -397.87624      277.03811     -342.68331      960.18531      0.99696118
    367000  -356.39951      45.278292     -401.6778       241.10998     -842.21117      960.18531      0.99696118
    368000  -343.40208      60.597827     -403.99991      322.68754     -45.930369      960.18531      0.99696118
    369000  -354.89651      49.552952     -404.44946      263.87283      2027.2302      960.18531      0.99696118
    370000  -365.67736      49.61161      -415.28897      264.18519     -4023.4541      960.18531      0.99696118
    371000  -344.71181      50.057252     -394.76906      266.55826      2769.612       960.18531      0.99696118
    372000  -351.59161      56.017553     -407.60916      298.29727     -477.56081      960.18531      0.99696118
    373000  -341.04649      48.225908     -389.2724       256.80624     -3463.1128      960.18531      0.99696118
    374000  -351.93267      51.167879     -403.10055      272.47243     -4626.4122      960.18531      0.99696118
    375000  -347.05839      57.271819     -404.3302       304.97632      1030.1069      960.18531      0.99696118
    376000  -330.19682      56.950714     -387.14754      303.26642     -2441.1543      960.18531      0.99696118
    377000  -325.58855      60.714762     -386.30331      323.31023     -3979.2562      960.18531      0.99696118
    378000  -335.2322       56.019669     -391.25186      298.30854     -1360.4391      960.18531      0.99696118
    379000  -324.05316      59.536625     -383.58978      317.03657      141.94975      960.18531      0.99696118
    380000  -321.94344      60.900645     -382.84409      324.30007     -2012.0776      960.18531      0.99696118
    381000  -328.25213      53.400083     -381.65221      284.35907     -1806.8875      960.18531      0.99696118
    382000  -328.12323      60.837705     -388.96093      323.96491     -3132.4281      960.18531      0.99696118
    383000  -308.9437       62.466156     -371.40986      332.63652      1065.9347      960.18531      0.99696118
    384000  -326.39044      59.754275     -386.14471      318.19557      903.13246      960.18531      0.99696118
    385000  -340.03901      54.800113     -394.83913      291.81432      117.8347       960.18531      0.99696118
    386000  -329.9864       50.383681     -380.37008      268.29652     -1422.2431      960.18531      0.99696118
    387000  -350.59592      48.633739     -399.22966      258.97796     -1253.4145      960.18531      0.99696118
    388000  -335.61804      57.36827      -392.98631      305.48993      2009.2015      960.18531      0.99696118
    389000  -346.06808      62.418192     -408.48627      332.38111      668.36547      960.18531      0.99696118
    390000  -330.3183       66.432225     -396.75052      353.75611      4650.3893      960.18531      0.99696118
    391000  -345.34154      52.612414     -397.95396      280.16468      4940.6621      960.18531      0.99696118
    392000  -349.15993      60.740154     -409.90009      323.44544      3407.4773      960.18531      0.99696118
    393000  -337.24526      66.71641      -403.96167      355.26941     -1922.307       960.18531      0.99696118
    394000  -345.1261       54.395693     -399.52179      289.66076      363.87836      960.18531      0.99696118
    395000  -329.68773      55.989066     -385.6768       298.14558     -5168.8947      960.18531      0.99696118
    396000  -339.84538      60.623954     -400.46933      322.82667     -2115.4404      960.18531      0.99696118
    397000  -336.68993      64.910465     -401.60039      345.65263      3805.3616      960.18531      0.99696118
    398000  -321.33088      51.866217     -373.1971       276.19113     -4866.0882      960.18531      0.99696118
    399000  -342.67223      54.852653     -397.52488      292.0941      -2102.3949      960.18531      0.99696118
    400000  -339.11089      59.651713     -398.76261      317.64942     -1377.3397      960.18531      0.99696118
    401000  -344.88639      47.447913     -392.33431      252.66336     -650.35667      960.18531      0.99696118
    402000  -325.09121      62.346816     -387.43802      332.00103     -960.22433      960.18531      0.99696118
    403000  -322.12949      53.984968     -376.11446      287.47362     -3516.7048      960.18531      0.99696118
    404000  -322.19225      49.498759     -371.69101      263.58425      795.6168       960.18531      0.99696118
    405000  -306.85524      67.331037     -374.18628      358.54235     -2570.3491      960.18531      0.99696118
    406000  -329.23972      51.936817     -381.17653      276.56708     -5521.0129      960.18531      0.99696118
    407000  -329.40148      62.870891     -392.27237      334.79177     -2841.995       960.18531      0.99696118
    408000  -348.73825      49.261366     -397.99961      262.32012     -3414.2485      960.18531      0.99696118
    409000  -332.8861       54.289701     -387.1758       289.09634     -1326.5621      960.18531      0.99696118
    410000  -331.39352      65.490067     -396.88359      348.73905     -4306.3384      960.18531      0.99696118
    411000  -325.41934      54.316955     -379.7363       289.24147      1939.0728      960.18531      0.99696118
    412000  -332.7704       68.160528     -400.93093      362.95944      283.80084      960.18531      0.99696118
    413000  -340.612        57.544402     -398.1564       306.42785     -1927.9052      960.18531      0.99696118
    414000  -340.48221      50.864969     -391.34718      270.85941     -2497.5898      960.18531      0.99696118
    415000  -324.94835      67.091629     -392.03998      357.26748     -504.92904      960.18531      0.99696118
    416000  -350.47101      52.714549     -403.18556      280.70855     -2842.3749      960.18531      0.99696118
    417000  -317.11883      57.089513     -374.20834      304.00553     -4660.8959      960.18531      0.99696118
    418000  -341.55028      53.201545     -394.75182      283.30184     -1608.9433      960.18531      0.99696118
    419000  -330.73567      51.690679     -382.42634      275.25637     -333.3128       960.18531      0.99696118
    420000  -351.62428      49.222605     -400.84689      262.11371     -1142.6051      960.18531      0.99696118
    421000  -353.06044      49.024805     -402.08524      261.06041      806.95282      960.18531      0.99696118
    422000  -317.51631      56.855632     -374.37194      302.7601       4120.7548      960.18531      0.99696118
    423000  -326.27878      64.046002     -390.32479      341.04931      575.25047      960.18531      0.99696118
    424000  -315.38394      57.6372       -373.02114      306.922        2872.5665      960.18531      0.99696118
    425000  -327.41834      59.14616      -386.5645       314.95732     -2334.531       960.18531      0.99696118
    426000  -341.28318      53.300962     -394.58414      283.83124     -461.30701      960.18531      0.99696118
    427000  -315.34059      57.765515     -373.10611      307.60529     -2243.6523      960.18531      0.99696118
    428000  -331.50202      55.49023      -386.99225      295.48924     -3086.2412      960.18531      0.99696118
    429000  -333.69234      50.672484     -384.36483      269.83442     -3203.5233      960.18531      0.99696118
    430000  -350.44358      46.240744     -396.68432      246.2351      -3604.2469      960.18531      0.99696118
    431000  -327.15057      56.415736     -383.5663       300.41762     -3398.845       960.18531      0.99696118
    432000  -314.04531      63.391851     -377.43716      337.56591      2698.9443      960.18531      0.99696118
    433000  -311.17571      64.098087     -375.2738       341.32666      952.46771      960.18531      0.99696118
    434000  -348.14478      47.976332     -396.12111      255.47722     -1740.3804      960.18531      0.99696118
    435000  -325.16466      59.402564     -384.56723      316.32268      3784.8793      960.18531      0.99696118
    436000  -347.49655      50.25757      -397.75412      267.62497      161.72289      960.18531      0.99696118
    437000  -340.9589       55.688257     -396.64715      296.54375     -4392.0201      960.18531      0.99696118
    438000  -338.02638      51.59306      -389.61944      274.73655     -3863.4704      960.18531      0.99696118
    439000  -332.58136      51.506276     -384.08764      274.27441      248.12397      960.18531      0.99696118
    440000  -318.85052      59.31056      -378.16108      315.83276      310.48683      960.18531      0.99696118
    441000  -347.54734      46.699292     -394.24663      248.6769       2408.5493      960.18531      0.99696118
    442000  -337.87413      46.500794     -384.37492      247.61988      297.88331      960.18531      0.99696118
    443000  -346.8019       51.150518     -397.95241      272.37998     -995.1572       960.18531      0.99696118
    444000  -323.77247      61.533939     -385.30641      327.6724       2022.8223      960.18531      0.99696118
    445000  -330.18061      54.149645     -384.33026      288.35054     -1856.3631      960.18531      0.99696118
    446000  -309.21115      55.733456     -364.94461      296.78444     -4093.2975      960.18531      0.99696118
    447000  -319.03944      59.441833     -378.48127      316.53179     -2436.8384      960.18531      0.99696118
    448000  -339.93706      50.665969     -390.60303      269.79973     -622.5327       960.18531      0.99696118
    449000  -323.23989      57.017591     -380.25748      303.62255      1787.8665      960.18531      0.99696118
    450000  -346.8721       54.297286     -401.16939      289.13673     -793.94638      960.18531      0.99696118
    451000  -342.1695       50.386139     -392.55564      268.30961     -2578.753       960.18531      0.99696118
    452000  -337.34297      52.639832     -389.9828       280.31068      414.00669      960.18531      0.99696118
    453000  -325.15847      52.704401     -377.86287      280.65451     -1088.2562      960.18531      0.99696118
    454000  -322.71919      53.208868     -375.92806      283.34084     -2839.7002      960.18531      0.99696118
    455000  -337.67928      61.241832     -398.92111      326.11691     -1812.3511      960.18531      0.99696118
    456000  -328.8472       56.987265     -385.83447      303.46105     -2361.2578      960.18531      0.99696118
    457000  -336.04207      51.852337     -387.8944       276.11722     -1973.2787      960.18531      0.99696118
    458000  -324.9762       51.24646      -376.22266      272.89088     -2491.2792      960.18531      0.99696118
    459000  -345.35292      56.424511     -401.77743      300.46435     -76.36014       960.18531      0.99696118
    460000  -337.9418       54.618593     -392.5604       290.84772     -1559.2359      960.18531      0.99696118
    461000  -319.96777      66.192469     -386.16024      352.47939      680.14854      960.18531      0.99696118
    462000  -335.41494      49.335113     -384.75005      262.71283     -1587.6972      960.18531      0.99696118
    463000  -351.22218      51.680443     -402.90262      275.20187     -900.96922      960.18531      0.99696118
    464000  -345.96898      49.682831     -395.65182      264.56445      1233.7457      960.18531      0.99696118
    465000  -325.23893      60.814222     -386.05315      323.83986     -4243.5307      960.18531      0.99696118
    466000  -337.37858      57.064116     -394.4427       303.87029     -2489.5669      960.18531      0.99696118
    467000  -337.04248      67.595422     -404.6379       359.95021      401.37313      960.18531      0.99696118
    468000  -350.34095      58.705592     -409.04654      312.61126      1465.5556      960.18531      0.99696118
    469000  -355.45957      45.871389     -401.33096      244.26826     -295.0622       960.18531      0.99696118
    470000  -354.78208      48.134334     -402.91642      256.3186      -5739.4399      960.18531      0.99696118
    471000  -341.42138      50.742393     -392.16377      270.20669      855.2256       960.18531      0.99696118
    472000  -329.53862      57.682384     -387.22101      307.16261     -2849.1091      960.18531      0.99696118
    473000  -333.87324      59.668245     -393.54149      317.73746     -2861.5769      960.18531      0.99696118
    474000  -313.74061      58.853842     -372.59445      313.40071     -12.558227      960.18531      0.99696118
    475000  -317.50584      58.251851     -375.75769      310.19506      179.52418      960.18531      0.99696118
    476000  -349.15229      42.769946     -391.92224      227.75287     -744.43981      960.18531      0.99696118
    477000  -345.49736      52.802877     -398.30023      281.1789      -4242.5289      960.18531      0.99696118
    478000  -340.59659      55.524899     -396.12149      295.67385     -49.017155      960.18531      0.99696118
    479000  -346.88217      56.673196     -403.55536      301.78862     -3646.0851      960.18531      0.99696118
    480000  -336.85427      58.233893     -395.08817      310.09943      1711.4019      960.18531      0.99696118
    481000  -341.07917      54.261271     -395.34044      288.94495      2581.8993      960.18531      0.99696118
    482000  -348.61876      50.318775     -398.93753      267.95089      766.11939      960.18531      0.99696118
    483000  -348.21795      44.422708     -392.64066      236.55394      972.77735      960.18531      0.99696118
    484000  -328.19703      62.979033     -391.17606      335.36762      426.58426      960.18531      0.99696118
    485000  -345.61136      42.96078      -388.57214      228.76907     -94.045508      960.18531      0.99696118
    486000  -341.52735      63.041731     -404.56908      335.7015       1943.3215      960.18531      0.99696118
    487000  -342.51149      55.034138     -397.54563      293.06052     -1500.7002      960.18531      0.99696118
    488000  -326.00558      67.77397      -393.77955      360.90099      682.42363      960.18531      0.99696118
    489000  -310.41228      66.514159     -376.92643      354.19241     -4639.3968      960.18531      0.99696118
    490000  -339.44591      53.34865      -392.79456      284.08518     -4667.6218      960.18531      0.99696118
    491000  -342.72705      53.874404     -396.60145      286.88486      326.64192      960.18531      0.99696118
    492000  -332.60272      64.536522     -397.13924      343.66136     -3273.349       960.18531      0.99696118
    493000  -344.71648      63.366165     -408.08264      337.42913      2166.6378      960.18531      0.99696118
    494000  -337.11655      52.467791     -389.58434      279.39455     -150.16055      960.18531      0.99696118
    495000  -353.56165      53.773738     -407.33539      286.3488       117.43187      960.18531      0.99696118
    496000  -343.87845      52.304509     -396.18296      278.52506     -2172.1883      960.18531      0.99696118
    497000  -341.93743      59.472655     -401.41009      316.69593     -6.1281849      960.18531      0.99696118
    498000  -345.85681      51.891372     -397.74818      276.32508      990.71558      960.18531      0.99696118
    499000  -329.80773      57.238343     -387.04608      304.79806     -2431.0031      960.18531      0.99696118
    500000  -336.24474      46.872187     -383.11693      249.59758     -1535.4019      960.18531      0.99696118
    501000  -345.48753      51.264462     -396.75199      272.98674      3248.1813      960.18531      0.99696118
    502000  -324.76385      52.887843     -377.6517       281.63135     -3161.7929      960.18531      0.99696118
    503000  -359.28671      46.632091     -405.9188       248.31905      1501.6314      960.18531      0.99696118
    504000  -338.09612      43.727018     -381.82314      232.84934     -451.60315      960.18531      0.99696118
    505000  -326.20116      65.57075      -391.77191      349.1687       206.31243      960.18531      0.99696118
    506000  -338.6013       63.311342     -401.91264      337.1372      -2034.5645      960.18531      0.99696118
    507000  -328.33513      59.948894     -388.28403      319.23193      2155.504       960.18531      0.99696118
    508000  -336.94807      56.253177     -393.20125      299.55199     -4844.8058      960.18531      0.99696118
    509000  -336.36846      66.61565      -402.98411      354.73286      740.29455      960.18531      0.99696118
    510000  -334.14247      63.6155       -397.75797      338.75686      6892.7427      960.18531      0.99696118
    511000  -344.25441      54.456036     -398.71044      289.98209     -2634.796       960.18531      0.99696118
    512000  -336.51843      54.130794     -390.64923      288.25015     -3504.5047      960.18531      0.99696118
    513000  -341.79857      56.290861     -398.08943      299.75266      122.5488       960.18531      0.99696118
    514000  -339.60089      58.655457     -398.25635      312.34429      31.240656      960.18531      0.99696118
    515000  -339.72349      52.412795     -392.13629      279.10169      2805.3834      960.18531      0.99696118
    516000  -333.36962      54.558586     -387.9282       290.52817      800.72712      960.18531      0.99696118
    517000  -346.50707      60.063865     -406.57093      319.84416     -752.9998       960.18531      0.99696118
    518000  -341.54388      59.032163     -400.57604      314.35028     -3764.0452      960.18531      0.99696118
    519000  -331.71559      54.802737     -386.51832      291.8283       1809.7745      960.18531      0.99696118
    520000  -332.37391      56.619393     -388.9933       301.50211     -750.93235      960.18531      0.99696118
    521000  -325.46106      57.917543     -383.37861      308.41485      2599.9898      960.18531      0.99696118
    522000  -338.37479      49.725254     -388.10005      264.79035     -3235.7524      960.18531      0.99696118
    523000  -323.72635      58.430799     -382.15715      311.14797     -3398.6555      960.18531      0.99696118
    524000  -328.99228      61.46427      -390.45655      327.30141     -2160.0544      960.18531      0.99696118
    525000  -315.10102      54.490007     -369.59103      290.16299      1753.8395      960.18531      0.99696118
    526000  -341.01539      58.762129     -399.77752      312.91233     -106.10408      960.18531      0.99696118
    527000  -321.4711       60.594649     -382.06575      322.67062      327.56273      960.18531      0.99696118
    528000  -337.10165      55.264513     -392.36617      294.28728     -764.21156      960.18531      0.99696118
    529000  -337.50262      50.891993     -388.39461      271.00332      2944.4305      960.18531      0.99696118
    530000  -314.91966      49.036971     -363.95663      261.1252       1392.4168      960.18531      0.99696118
    531000  -347.99741      52.320789     -400.3182       278.61175      878.30512      960.18531      0.99696118
    532000  -334.55952      60.069616     -394.62914      319.87478     -4320.7339      960.18531      0.99696118
    533000  -324.84658      59.787865     -384.63445      318.37444      692.52612      960.18531      0.99696118
    534000  -311.59401      74.008262     -385.60228      394.09902      2849.0408      960.18531      0.99696118
    535000  -331.70568      52.467858     -384.17354      279.3949      -2929.7366      960.18531      0.99696118
    536000  -335.46001      50.918574     -386.37859      271.14486      193.52924      960.18531      0.99696118
    537000  -325.88512      63.314122     -389.19924      337.152       -124.7498       960.18531      0.99696118
    538000  -328.16396      50.872029     -379.03598      270.89701      1191.7858      960.18531      0.99696118
    539000  -343.8709       47.470171     -391.34107      252.78188     -602.65769      960.18531      0.99696118
    540000  -336.9453       49.305202     -386.25051      262.55355      951.27412      960.18531      0.99696118
    541000  -329.2371       46.624677     -375.86178      248.27957      756.90697      960.18531      0.99696118
    542000  -333.37143      47.26512      -380.63655      251.68997     -3769.9733      960.18531      0.99696118
    543000  -327.00302      60.221364     -387.22439      320.68285     -1789.7431      960.18531      0.99696118
    544000  -338.13503      54.349725     -392.48476      289.41598     -1631.7694      960.18531      0.99696118
    545000  -342.02387      60.308395     -402.33226      321.1463      -717.82536      960.18531      0.99696118
    546000  -336.86886      50.598774     -387.46763      269.44191     -3960.078       960.18531      0.99696118
    547000  -329.75812      54.925166     -384.68329      292.48024     -2441.1619      960.18531      0.99696118
    548000  -343.36268      57.754813     -401.11749      307.5483      -3391.0971      960.18531      0.99696118
    549000  -329.74681      63.747078     -393.49389      339.45752      3739.4155      960.18531      0.99696118
    550000  -336.8762       49.645164     -386.52136      264.36387      1382.4822      960.18531      0.99696118
    551000  -353.81478      49.901727     -403.71651      265.73008      42.708801      960.18531      0.99696118
    552000  -344.86873      50.598412     -395.46715      269.43998     -3644.4041      960.18531      0.99696118
    553000  -328.9441       56.341615     -385.28571      300.02292     -1553.9376      960.18531      0.99696118
    554000  -347.50556      57.007293     -404.51286      303.5677       334.78799      960.18531      0.99696118
    555000  -337.54946      62.349914     -399.89938      332.01753     -1075.3252      960.18531      0.99696118
    556000  -344.54762      48.330813     -392.87844      257.36486     -5367.8259      960.18531      0.99696118
    557000  -348.41598      48.472845     -396.88883      258.12119      823.34157      960.18531      0.99696118
    558000  -329.83695      56.956193     -386.79314      303.2956       3380.5417      960.18531      0.99696118
    559000  -330.91442      54.90674      -385.82116      292.38212      2344.0996      960.18531      0.99696118
    560000  -344.12255      46.721697     -390.84424      248.79621      106.32724      960.18531      0.99696118
    561000  -329.65134      62.660691     -392.31204      333.67243     -709.52969      960.18531      0.99696118
    562000  -327.30299      54.365412     -381.6684       289.49951     -5616.807       960.18531      0.99696118
    563000  -331.00074      51.709054     -382.70979      275.35422     -3489.6645      960.18531      0.99696118
    564000  -333.17111      56.431615     -389.60272      300.50218     -1735.1385      960.18531      0.99696118
    565000  -331.95476      58.872159     -390.82692      313.49824      1036.996       960.18531      0.99696118
    566000  -331.6173       45.234039     -376.85134      240.87433      2255.9494      960.18531      0.99696118
    567000  -325.25494      59.482408     -384.73735      316.74786      1378.5528      960.18531      0.99696118
    568000  -335.58885      60.421963     -396.01081      321.75106     -182.04922      960.18531      0.99696118
    569000  -336.62113      54.366786     -390.98792      289.50682      2399.0822      960.18531      0.99696118
    570000  -323.21877      58.988669     -382.20744      314.11866      96.97078       960.18531      0.99696118
    571000  -348.72274      48.264972     -396.98771      257.01425      1758.3801      960.18531      0.99696118
    572000  -333.2708       61.874235     -395.14503      329.4845       4750.4599      960.18531      0.99696118
    573000  -336.84154      55.54242      -392.38396      295.76716     -1611.4099      960.18531      0.99696118
    574000  -343.43488      59.283058     -402.71794      315.68631      1754.8307      960.18531      0.99696118
    575000  -341.28921      49.744244     -391.03345      264.89148      3186.7124      960.18531      0.99696118
    576000  -328.7132       61.75385      -390.46705      328.84344      1502.9213      960.18531      0.99696118
    577000  -334.90698      60.92928      -395.83626      324.45255     -771.29118      960.18531      0.99696118
    578000  -339.64914      48.09142      -387.74057      256.09008      1208.8492      960.18531      0.99696118
    579000  -350.21267      51.161849     -401.37451      272.44032     -4385.4548      960.18531      0.99696118
    580000  -339.7168       54.388439     -394.10524      289.62213     -1993.723       960.18531      0.99696118
    581000  -340.71742      56.600588     -397.31801      301.40198     -643.98062      960.18531      0.99696118
    582000  -350.26372      49.80933      -400.07305      265.23806     -1079.1061      960.18531      0.99696118
    583000  -330.99898      63.848831     -394.84781      339.99936     -737.23879      960.18531      0.99696118
    584000  -334.63189      60.858912     -395.4908       324.07784     -2833.6715      960.18531      0.99696118
    585000  -344.70881      51.563422     -396.27223      274.57872      686.62199      960.18531      0.99696118
    586000  -332.39623      60.871151     -393.26738      324.14301      1489.0832      960.18531      0.99696118
    587000  -338.31582      52.057229     -390.37305      277.20828     -446.23596      960.18531      0.99696118
    588000  -316.29398      63.268269     -379.56224      336.90783     -3626.4945      960.18531      0.99696118
    589000  -330.4469       56.464537     -386.91143      300.67749     -1335.0819      960.18531      0.99696118
    590000  -330.41556      59.697167     -390.11273      317.89147      972.20774      960.18531      0.99696118
    591000  -348.27144      59.701153     -407.97259      317.91269     -3293.5956      960.18531      0.99696118
    592000  -328.63564      62.218145     -390.85379      331.31584      3313.7634      960.18531      0.99696118
    593000  -319.76252      62.42885      -382.19137      332.43786     -508.46586      960.18531      0.99696118
    594000  -336.05321      54.314499     -390.36771      289.2284       966.08276      960.18531      0.99696118
    595000  -335.13672      61.988118     -397.12483      330.09094     -3106.5886      960.18531      0.99696118
    596000  -328.09631      56.780634     -384.87694      302.36073     -673.52747      960.18531      0.99696118
    597000  -336.23478      52.795413     -389.0302       281.13916     -870.20277      960.18531      0.99696118
    598000  -336.32255      59.279369     -395.60192      315.66666     -864.23279      960.18531      0.99696118
    599000  -348.24903      54.605629     -402.85466      290.77868      2536.5426      960.18531      0.99696118
    600000  -330.80389      61.586362     -392.39026      327.95156     -196.43096      960.18531      0.99696118
    601000  -341.63418      60.0341       -401.66828      319.68566     -1932.7305      960.18531      0.99696118
    602000  -307.5117       72.692578     -380.20428      387.09291      3712.2273      960.18531      0.99696118
    603000  -338.94291      56.000404     -394.94331      298.20595     -2837.2689      960.18531      0.99696118
    604000  -333.45093      66.824429     -400.27536      355.84462      1207.0976      960.18531      0.99696118
    605000  -336.71789      56.286671     -393.00456      299.73034      739.40253      960.18531      0.99696118
    606000  -340.78876      63.173512     -403.96227      336.40324     -592.51346      960.18531      0.99696118
    607000  -332.04042      62.328753     -394.36917      331.90484     -1424.2666      960.18531      0.99696118
    608000  -334.3301       59.486195     -393.8163       316.76803     -1693.2175      960.18531      0.99696118
    609000  -321.42628      49.892858     -371.31913      265.68285      483.52436      960.18531      0.99696118
    610000  -327.78375      56.879528     -384.66328      302.88735      639.28661      960.18531      0.99696118
    611000  -351.11523      51.097343     -402.21258      272.09682     -68.943425      960.18531      0.99696118
    612000  -328.94         60.826905     -389.76691      323.9074      -1846.9297      960.18531      0.99696118
    613000  -332.8349       59.738917     -392.57382      318.11379     -2098.726       960.18531      0.99696118
    614000  -345.61592      50.475633     -396.09155      268.78617     -4508.5892      960.18531      0.99696118
    615000  -325.05296      61.901857     -386.95481      329.63159     -3115.1793      960.18531      0.99696118
    616000  -332.85516      56.521615     -389.37678      300.98144      639.1071       960.18531      0.99696118
    617000  -329.97959      60.407211     -390.3868       321.6725       2538.1538      960.18531      0.99696118
    618000  -320.25889      58.773773     -379.03266      312.97433     -368.15574      960.18531      0.99696118
    619000  -344.53078      47.310653     -391.84143      251.93244     -4312.4993      960.18531      0.99696118
    620000  -338.79984      63.380512     -402.18035      337.50553     -2218.0814      960.18531      0.99696118
    621000  -338.72723      57.632861     -396.36009      306.8989       619.41864      960.18531      0.99696118
    622000  -349.79577      53.51244      -403.30821      284.95738     -2722.5913      960.18531      0.99696118
    623000  -326.30894      58.57546      -384.8844       311.9183      -1783.4549      960.18531      0.99696118
    624000  -318.42731      51.039706     -369.46702      271.7899      -6918.1628      960.18531      0.99696118
    625000  -339.97501      41.355095     -381.33011      220.21869     -751.8813       960.18531      0.99696118
    626000  -317.25727      55.621205     -372.87848      296.18669      1027.721       960.18531      0.99696118
    627000  -334.65926      55.241186     -389.90045      294.16306     -3970.6168      960.18531      0.99696118
    628000  -333.07505      50.228364     -383.30342      267.46945     -3602.7307      960.18531      0.99696118
    629000  -356.36231      47.2031       -403.56541      251.35971     -288.7582       960.18531      0.99696118
    630000  -342.52427      49.586019     -392.11029      264.04892     -2777.988       960.18531      0.99696118
    631000  -337.08695      59.237144     -396.3241       315.44181      1416.5875      960.18531      0.99696118
    632000  -326.94861      52.534398     -379.48301      279.74924     -2208.3491      960.18531      0.99696118
    633000  -347.66663      46.952454     -394.61908      250.02501     -1042.2414      960.18531      0.99696118
    634000  -335.79618      65.415993     -401.21218      348.3446       176.95164      960.18531      0.99696118
    635000  -340.62237      64.044602     -404.66697      341.04186      2198.9152      960.18531      0.99696118
    636000  -349.35945      50.816427     -400.17588      270.60093     -3198.4941      960.18531      0.99696118
    637000  -326.01337      69.40713      -395.4205       369.59768      5828.7621      960.18531      0.99696118
    638000  -335.11078      48.772879     -383.88366      259.71889      2287.3405      960.18531      0.99696118
    639000  -331.4713       59.972628     -391.44393      319.35831      536.36591      960.18531      0.99696118
    640000  -338.27359      52.11624      -390.38983      277.52252      4454.1381      960.18531      0.99696118
    641000  -343.79406      53.322392     -397.11645      283.94536      2707.8952      960.18531      0.99696118
    642000  -334.51573      58.012822     -392.52855      308.92221      591.01213      960.18531      0.99696118
    643000  -324.18081      54.433169     -378.61398      289.86032     -1145.2298      960.18531      0.99696118
    644000  -326.00315      53.24933      -379.25248      283.5563      -4562.5235      960.18531      0.99696118
    645000  -320.32194      59.098538     -379.42048      314.70373     -4937.9123      960.18531      0.99696118
    646000  -327.77456      57.467155     -385.24171      306.0165      -559.05771      960.18531      0.99696118
    647000  -344.56541      48.316053     -392.88146      257.28626      2016.9044      960.18531      0.99696118
    648000  -341.10356      50.992426     -392.09599      271.53813     -703.18875      960.18531      0.99696118
    649000  -343.50018      49.424192     -392.92437      263.18718     -1459.3909      960.18531      0.99696118
    650000  -339.7993       49.139971     -388.93927      261.67368     -4950.4491      960.18531      0.99696118
[...]
   2842000  -357.93067      55.867151     -413.79783      297.49637     -2129.748       960.18531      0.99696118
   2843000  -333.19535      58.631839     -391.82719      312.21852     -1841.7326      960.18531      0.99696118
   2844000  -335.89677      60.973959     -396.87073      324.69047     -2546.1751      960.18531      0.99696118
   2845000  -347.91762      49.602674     -397.52029      264.13761     -1250.3516      960.18531      0.99696118
   2846000  -340.14452      57.487966     -397.63249      306.12732      600.20036      960.18531      0.99696118
   2847000  -346.38626      55.648375     -402.03463      296.33138      976.07139      960.18531      0.99696118
   2848000  -331.95348      43.961062     -375.91455      234.09564     -4542.7528      960.18531      0.99696118
   2849000  -337.75521      50.171065     -387.92627      267.16433     -3446.8195      960.18531      0.99696118
   2850000  -334.1216       46.979883     -381.10149      250.17106     -875.76732      960.18531      0.99696118
   2851000  -338.2682       54.415685     -392.68389      289.76722      2337.3914      960.18531      0.99696118
   2852000  -323.0187       56.709107     -379.72781      301.97985      982.49938      960.18531      0.99696118
   2853000  -314.67726      63.239326     -377.91658      336.7537      -4184.7719      960.18531      0.99696118
   2854000  -332.95855      57.720274     -390.67882      307.36438     -2326.8675      960.18531      0.99696118
   2855000  -326.28877      53.832518     -380.12129      286.66181     -1609.2369      960.18531      0.99696118
   2856000  -332.94607      60.046516     -392.99259      319.75178     -1453.2428      960.18531      0.99696118
   2857000  -339.39531      59.015659     -398.41097      314.26239      250.08721      960.18531      0.99696118
   2858000  -346.68403      47.585291     -394.26932      253.3949      -1917.7569      960.18531      0.99696118
   2859000  -330.52447      57.676457     -388.20093      307.13105      3566.7209      960.18531      0.99696118
   2860000  -338.48179      58.793837     -397.27562      313.08117      553.61419      960.18531      0.99696118
   2861000  -343.04833      53.934407     -396.98274      287.20438      1947.427       960.18531      0.99696118
   2862000  -338.79617      63.360547     -402.15672      337.39921      416.14162      960.18531      0.99696118
   2863000  -342.17626      50.358161     -392.53442      268.16062     -1841.9952      960.18531      0.99696118
   2864000  -346.47078      48.354547     -394.82533      257.49125     -186.89324      960.18531      0.99696118
   2865000  -331.02701      62.215188     -393.2422       331.3001      -3049.6407      960.18531      0.99696118
   2866000  -348.75221      49.917984     -398.67019      265.81665     -277.20708      960.18531      0.99696118
   2867000  -333.76806      60.399319     -394.16738      321.63048     -841.78431      960.18531      0.99696118
   2868000  -356.26181      53.663706     -409.92551      285.76288     -2093.2637      960.18531      0.99696118
   2869000  -331.82838      54.394268     -386.22265      289.65317      1449.6356      960.18531      0.99696118
   2870000  -328.87565      58.974143     -387.8498       314.04132     -1077.2244      960.18531      0.99696118
   2871000  -322.76495      58.544955     -381.3099       311.75586      189.30082      960.18531      0.99696118
   2872000  -343.98806      53.239485     -397.22754      283.50387     -4229.6752      960.18531      0.99696118
   2873000  -344.22976      53.569881     -397.79965      285.26325     -1109.2175      960.18531      0.99696118
   2874000  -337.00472      58.180121     -395.18484      309.8131      -2116.6279      960.18531      0.99696118
   2875000  -346.02219      52.57283      -398.59502      279.95389     -482.43699      960.18531      0.99696118
   2876000  -333.59498      58.391526     -391.9865       310.93884     -1856.7379      960.18531      0.99696118
   2877000  -346.65353      56.496526     -403.15006      300.84784     -2572.3472      960.18531      0.99696118
   2878000  -345.7531       56.217039     -401.97014      299.35955      2619.2468      960.18531      0.99696118
   2879000  -323.50802      61.148197     -384.65622      325.6183      -850.4748       960.18531      0.99696118
   2880000  -333.20702      54.867463     -388.07448      292.17297      1748.2765      960.18531      0.99696118
   2881000  -328.36645      57.943988     -386.31044      308.55567     -16.070693      960.18531      0.99696118
   2882000  -318.62268      61.16643      -379.78911      325.71539     -3600.4623      960.18531      0.99696118
   2883000  -334.3133       52.833535     -387.14683      281.34216     -809.1937       960.18531      0.99696118
   2884000  -332.6305       52.577668     -385.20817      279.97965     -1949.9762      960.18531      0.99696118
   2885000  -334.76178      52.965821     -387.7276       282.04659     -2171.3214      960.18531      0.99696118
   2886000  -327.36131      54.232997     -381.59431      288.79439     -1780.9911      960.18531      0.99696118
   2887000  -331.29028      46.706173     -377.99645      248.71354     -1578.947       960.18531      0.99696118
   2888000  -327.15242      56.809762     -383.96218      302.51584      5498.8336      960.18531      0.99696118
   2889000  -339.5479       52.180953     -391.72885      277.86711      3441.6956      960.18531      0.99696118
   2890000  -326.02024      57.557575     -383.57782      306.498        3225.3448      960.18531      0.99696118
   2891000  -320.26369      63.331788     -383.59548      337.24607     -1564.9622      960.18531      0.99696118
   2892000  -332.82832      57.153156     -389.98148      304.34444     -1219.2109      960.18531      0.99696118
   2893000  -315.95992      59.374871     -375.33479      316.17522      3738.8966      960.18531      0.99696118
   2894000  -315.92065      59.213015     -375.13366      315.31332     -919.28155      960.18531      0.99696118
   2895000  -308.44307      62.273129     -370.71619      331.60864     -1646.9705      960.18531      0.99696118
   2896000  -312.87083      73.093241     -385.96407      389.22647     -3645.49        960.18531      0.99696118
   2897000  -335.35926      54.389026     -389.74828      289.62525      4901.186       960.18531      0.99696118
   2898000  -322.4462       61.85604      -384.30224      329.38761     -310.34109      960.18531      0.99696118
   2899000  -344.47846      52.521985     -397.00044      279.68313     -5471.3417      960.18531      0.99696118
   2900000  -333.27971      51.112862     -384.39257      272.17946     -1551.386       960.18531      0.99696118
   2901000  -333.06819      60.683278     -393.75146      323.14257     -559.64993      960.18531      0.99696118
   2902000  -314.88131      57.305082     -372.18639      305.15345      1425.5743      960.18531      0.99696118
   2903000  -336.26139      55.681691     -391.94309      296.50879     -266.28739      960.18531      0.99696118
   2904000  -325.13019      59.773217     -384.90341      318.29644     -2333.7035      960.18531      0.99696118
   2905000  -331.5184       69.270949     -400.78935      368.87251     -784.65227      960.18531      0.99696118
   2906000  -344.36481      55.627266     -399.99207      296.21897     -2512.9704      960.18531      0.99696118
   2907000  -331.21369      53.366152     -384.57984      284.17838     -5019.9248      960.18531      0.99696118
   2908000  -346.52963      49.439028     -395.96865      263.26618     -1091.4807      960.18531      0.99696118
   2909000  -334.63357      60.128289     -394.76186      320.18722      1518.2379      960.18531      0.99696118
   2910000  -326.67701      64.51285      -391.18985      343.5353       3759.9443      960.18531      0.99696118
   2911000  -353.47927      53.259216     -406.73849      283.60894      1854.9507      960.18531      0.99696118
   2912000  -335.09486      63.464817     -398.55968      337.95446      3421.7699      960.18531      0.99696118
   2913000  -334.002        61.402823     -395.40482      326.9742      -3879.415       960.18531      0.99696118
   2914000  -354.4898       51.303664     -405.79346      273.19549      943.40509      960.18531      0.99696118
   2915000  -340.07291      59.335922     -399.40883      315.96781     -5174.0235      960.18531      0.99696118
   2916000  -329.94407      59.510262     -389.45433      316.89618      1167.6436      960.18531      0.99696118
   2917000  -340.1109       46.898679     -387.00958      249.73865      640.09731      960.18531      0.99696118
   2918000  -316.77749      63.101839     -379.87933      336.02158      1730.7134      960.18531      0.99696118
   2919000  -333.94613      50.961465     -384.9076       271.37326     -1481.4583      960.18531      0.99696118
   2920000  -343.29734      57.699225     -400.99656      307.25229      530.96511      960.18531      0.99696118
   2921000  -331.34629      59.203701     -390.54999      315.26373     -2151.5344      960.18531      0.99696118
   2922000  -327.27318      51.183911     -378.45709      272.5578       2238.7493      960.18531      0.99696118
   2923000  -327.25526      46.817842     -374.0731       249.30819      6.4421377      960.18531      0.99696118
   2924000  -329.01199      54.464838     -383.47682      290.02896     -2832.2506      960.18531      0.99696118
   2925000  -338.76526      49.529634     -388.2949       263.74866     -846.46011      960.18531      0.99696118
   2926000  -341.54295      50.725812     -392.26877      270.11839      791.74103      960.18531      0.99696118
   2927000  -333.3782       60.59694      -393.97514      322.68282      2045.4318      960.18531      0.99696118
   2928000  -328.46782      58.002784     -386.4706       308.86876     -2485.3821      960.18531      0.99696118
   2929000  -329.92047      61.310322     -391.23079      326.48163      1933.9256      960.18531      0.99696118
   2930000  -342.76419      52.86741      -395.6316       281.52255     -985.09859      960.18531      0.99696118
   2931000  -327.59069      65.224028     -392.81471      347.32238      1813.0589      960.18531      0.99696118
   2932000  -340.48278      48.603981     -389.08676      258.8195      -4030.0428      960.18531      0.99696118
   2933000  -334.98661      47.397497     -382.38411      252.39489     -1131.383       960.18531      0.99696118
   2934000  -339.3216       57.442475     -396.76407      305.88508      1385.9321      960.18531      0.99696118
   2935000  -312.19151      70.144877     -382.33638      373.52623     -3541.8163      960.18531      0.99696118
   2936000  -340.17909      50.781328     -390.96042      270.41402     -30.229033      960.18531      0.99696118
   2937000  -339.48822      53.363543     -392.85176      284.16449     -1478.163       960.18531      0.99696118
   2938000  -350.49105      48.423162     -398.91421      257.85663     -1594.6889      960.18531      0.99696118
   2939000  -331.80077      57.528971     -389.32974      306.34567     -1042.7032      960.18531      0.99696118
   2940000  -343.40593      53.632753     -397.03869      285.59805      25.142091      960.18531      0.99696118
   2941000  -336.78536      52.612391     -389.39776      280.16455      1227.6001      960.18531      0.99696118
   2942000  -336.65165      56.863994     -393.51564      302.80463     -2204.4858      960.18531      0.99696118
   2943000  -319.03849      57.627115     -376.66561      306.8683       1667.0355      960.18531      0.99696118
   2944000  -342.23533      57.428946     -399.66427      305.81303     -2224.5898      960.18531      0.99696118
   2945000  -324.21938      61.812662     -386.03204      329.15662      1056.9517      960.18531      0.99696118
   2946000  -343.33968      56.250307     -399.58999      299.5367      -1870.4494      960.18531      0.99696118
   2947000  -328.01455      51.850694     -379.86525      276.10846      2529.4021      960.18531      0.99696118
   2948000  -341.5352       52.91513      -394.45033      281.77666     -3243.3358      960.18531      0.99696118
   2949000  -335.17514      53.990122     -389.16526      287.50107     -765.56157      960.18531      0.99696118
   2950000  -334.96419      46.497404     -381.46159      247.60183     -596.90151      960.18531      0.99696118
   2951000  -328.49886      63.147943     -391.64681      336.26708     -1026.4586      960.18531      0.99696118
   2952000  -323.03988      75.513323     -398.55321      402.11357     -3053.8232      960.18531      0.99696118
   2953000  -343.70202      61.496785     -405.1988       327.47456     -1826.983       960.18531      0.99696118
   2954000  -327.61044      59.506251     -387.11669      316.87482     -2306.9134      960.18531      0.99696118
   2955000  -316.61339      53.448756     -370.06214      284.61825      3218.6573      960.18531      0.99696118
   2956000  -331.7574       55.318351     -387.07575      294.57397     -466.59713      960.18531      0.99696118
   2957000  -334.25322      50.051147     -384.30437      266.52576      1500.6556      960.18531      0.99696118
   2958000  -331.20737      58.30079      -389.50816      310.45567     -2403.8912      960.18531      0.99696118
   2959000  -342.56253      53.909419     -396.47195      287.07132      1341.0119      960.18531      0.99696118
   2960000  -345.54646      52.479813     -398.02628      279.45857      1367.2655      960.18531      0.99696118
   2961000  -342.93371      51.007741     -393.94145      271.61969     -1234.3471      960.18531      0.99696118
   2962000  -336.61026      60.33753      -396.94779      321.30145     -3120.1901      960.18531      0.99696118
   2963000  -320.22047      62.477934     -382.6984       332.69924      748.0611       960.18531      0.99696118
   2964000  -346.07388      57.521694     -403.59557      306.30693     -457.20028      960.18531      0.99696118
   2965000  -328.87168      63.166566     -392.03824      336.36625     -3579.3661      960.18531      0.99696118
   2966000  -327.03047      57.417304     -384.44777      305.75104      271.54265      960.18531      0.99696118
   2967000  -324.57046      55.839346     -380.4098       297.34831     -2371.8672      960.18531      0.99696118
   2968000  -331.93822      55.550274     -387.4885       295.80898     -3289.6194      960.18531      0.99696118
   2969000  -334.34717      51.30965      -385.65682      273.22737     -2772.2058      960.18531      0.99696118
   2970000  -346.72121      53.804123     -400.52533      286.51061     -3838.5797      960.18531      0.99696118
   2971000  -335.81355      58.601336     -394.41488      312.05609     -5045.7742      960.18531      0.99696118
   2972000  -353.95501      47.212529     -401.16754      251.40992      459.89388      960.18531      0.99696118
   2973000  -346.23122      57.711157     -403.94238      307.31583     -450.38657      960.18531      0.99696118
   2974000  -353.76899      45.936941     -399.70593      244.61733     -933.35546      960.18531      0.99696118
   2975000  -338.43287      44.627394     -383.06027      237.6439      -36.509552      960.18531      0.99696118
   2976000  -351.06559      56.731508     -407.7971       302.09913     -2476.2521      960.18531      0.99696118
   2977000  -334.27669      53.725449     -388.00213      286.09166     -4123.5596      960.18531      0.99696118
   2978000  -336.10761      53.940331     -390.04795      287.23593     -120.39588      960.18531      0.99696118
   2979000  -332.53797      57.654124     -390.19209      307.01212     -2104.9087      960.18531      0.99696118
   2980000  -350.0497       54.287349     -404.33705      289.08382      1241.6777      960.18531      0.99696118
   2981000  -331.90332      60.651202     -392.55452      322.97177      711.81782      960.18531      0.99696118
   2982000  -346.11339      52.143823     -398.25721      277.6694       2171.5272      960.18531      0.99696118
   2983000  -333.90084      53.116008     -387.01685      282.84635      2431.59        960.18531      0.99696118
   2984000  -332.06879      51.873269     -383.94206      276.22868      819.51794      960.18531      0.99696118
   2985000  -336.28789      53.613848     -389.90174      285.49738     -1659.4136      960.18531      0.99696118
   2986000  -348.87773      52.721615     -401.59935      280.74618     -767.21835      960.18531      0.99696118
   2987000  -336.7478       51.862058     -388.60986      276.16898      535.83909      960.18531      0.99696118
   2988000  -349.07678      63.207825     -412.2846       336.58596     -2975.3951      960.18531      0.99696118
   2989000  -343.84665      52.365911     -396.21256      278.85203      2681.9754      960.18531      0.99696118
   2990000  -329.59025      45.527241     -375.11749      242.43565      2923.3545      960.18531      0.99696118
   2991000  -323.01436      51.775095     -374.78946      275.7059       143.78158      960.18531      0.99696118
   2992000  -334.54744      59.765187     -394.31263      318.25368     -3670.0752      960.18531      0.99696118
   2993000  -317.77179      58.036627     -375.80842      309.04898     -218.30505      960.18531      0.99696118
   2994000  -323.92253      65.935641     -389.85818      351.11176      412.05621      960.18531      0.99696118
   2995000  -349.56667      51.889657     -401.45633      276.31595     -2939.0397      960.18531      0.99696118
   2996000  -339.74211      50.022674     -389.76478      266.37413      606.8771       960.18531      0.99696118
   2997000  -336.34745      50.548127     -386.89558      269.17221     -1273.8593      960.18531      0.99696118
   2998000  -328.75386      56.358272     -385.11214      300.11162     -735.81337      960.18531      0.99696118
   2999000  -322.0278       59.416554     -381.44435      316.39718     -2875.0186      960.18531      0.99696118
   3000000  -336.40547      52.772368     -389.17784      281.01644     -3675.1154      960.18531      0.99696118
Loop time of 859.84 on 1 procs for 2000000 steps with 96 atoms

Performance: 200.968 ns/day, 0.119 hours/ns, 2326.013 timesteps/s
99.7% CPU use with 1 MPI tasks x 1 OpenMP threads

MPI task timing breakdown:
Section |  min time  |  avg time  |  max time  |%varavg| %total
---------------------------------------------------------------
Pair    | 673.11     | 673.11     | 673.11     |   0.0 | 78.28
Bond    | 0.10079    | 0.10079    | 0.10079    |   0.0 |  0.01
Kspace  | 118.26     | 118.26     | 118.26     |   0.0 | 13.75
Neigh   | 29.823     | 29.823     | 29.823     |   0.0 |  3.47
Comm    | 23.236     | 23.236     | 23.236     |   0.0 |  2.70
Output  | 0.26722    | 0.26722    | 0.26722    |   0.0 |  0.03
Modify  | 11.712     | 11.712     | 11.712     |   0.0 |  1.36
Other   |            | 3.333      |            |       |  0.39

Nlocal:             96 ave          96 max          96 min
Histogram: 1 0 0 0 0 0 0 0 0 0
Nghost:           3688 ave        3688 max        3688 min
Histogram: 1 0 0 0 0 0 0 0 0 0
Neighs:          34743 ave       34743 max       34743 min
Histogram: 1 0 0 0 0 0 0 0 0 0

Total # of neighbors = 34743
Ave neighs/atom = 361.90625
Ave special neighs/atom = 2
Neighbor list builds = 41766
Dangerous builds = 0

# write data file
write_data data.after_prod.lmp
System init for write_data ...
PPPM initialization ...
  using 12-bit tables for long-range coulomb (src/kspace.cpp:342)
  G vector (1/distance) = 0.30847861
  grid = 9 9 9
  stencil order = 5
  estimated absolute RMS force accuracy = 0.0027675926
  estimated relative force accuracy = 8.334523e-06
  using double precision FFTW3
  3d grid and FFT values/proc = 4096 729
Generated 1 of 1 mixed pair_coeff terms from geometric mixing rule

# clean up
undump dPROD
unfix fTHERMO
unfix fMOM
unfix fSHAKE
Total wall time: 0:21:30
