LAMMPS (23 Jun 2022 - Update 4)
  using 1 OpenMP thread(s) per MPI task
# created by fftool

# System settings
units real
boundary p p p  # Periodic boundary conditions

# definition of atoms, bonds, angles
atom_style full
bond_style harmonic
angle_style harmonic

# definition of pair potentials
special_bonds lj/coul 0.0 0.0 0.5
pair_style lj/cut/coul/long 10.0 10.0
pair_modify mix geometric tail yes
kspace_style pppm 1.0e-5

# read data file
read_data data.lmp
Reading data file ...
  orthogonal box = (0 0 0) to (12.42973 12.42973 12.42973)
  1 by 1 by 1 MPI processor grid
  reading atoms ...
  192 atoms
  scanning bonds ...
  1 = max bonds/atom
  scanning angles ...
  1 = max angles/atom
  reading bonds ...
  128 bonds
  reading angles ...
  64 angles
Finding 1-2 1-3 1-4 neighbors ...
  special bond factors lj:    0        0        0.5
  special bond factors coul:  0        0        0.5
     2 = max # of 1-2 neighbors
     1 = max # of 1-3 neighbors
     1 = max # of 1-4 neighbors
     2 = max # of special neighbors
  special bonds CPU = 0.000 seconds
  read_data CPU = 0.005 seconds

# definition of LJ parameters
pair_coeff    1    1     0.000000     0.000000  # Hw Hw
pair_coeff    2    2     0.162876     3.153970  # Ow-Ow

############################################

# remove energy hotspots
minimize 1.0e-4 1.0e-6 100 1000
WARNING: Using 'neigh_modify every 1 delay 0 check yes' setting during minimization (src/min.cpp:187)
PPPM initialization ...
  using 12-bit tables for long-range coulomb (src/kspace.cpp:342)
  G vector (1/distance) = 0.31260513
  grid = 12 12 12
  stencil order = 5
  estimated absolute RMS force accuracy = 0.0021455329
  estimated relative force accuracy = 6.4612085e-06
  using double precision FFTW3
  3d grid and FFT values/proc = 6859 1728
Generated 1 of 1 mixed pair_coeff terms from geometric mixing rule
Neighbor list info ...
  update every 1 steps, delay 0 steps, check yes
  max neighbors/atom: 2000, page size: 100000
  master list distance cutoff = 12
  ghost atom cutoff = 12
  binsize = 6, bins = 3 3 3
  1 neighbor lists, perpetual/occasional/extra = 1 0 0
  (1) pair lj/cut/coul/long, perpetual
      attributes: half, newton on
      pair build: half/bin/newton
      stencil: half/bin/3d
      bin: standard
Per MPI rank memory allocation (min/avg/max) = 8.739 | 8.739 | 8.739 Mbytes
   Step          Temp          E_pair         E_mol          TotEng         Press
         0   0              33729.79       2.0580857e-07  33729.79       4855669.2
       100   0             -1006.3961      76.519201     -929.8769      -4355.4991
Loop time of 0.207818 on 1 procs for 100 steps with 192 atoms

99.6% CPU use with 1 MPI tasks x 1 OpenMP threads

Minimization stats:
  Stopping criterion = max iterations
  Energy initial, next-to-last, final =
       33729.789743627  -929.444169127945  -929.876896917185
  Force two-norm initial, final = 367740.37 34.28087
  Force max component initial, final = 233540.62 6.1708332
  Final line search alpha, max atom move = 0.0097549976 0.060196463
  Iterations, force evaluations = 100 175

MPI task timing breakdown:
Section |  min time  |  avg time  |  max time  |%varavg| %total
---------------------------------------------------------------
Pair    | 0.17758    | 0.17758    | 0.17758    |   0.0 | 85.45
Bond    | 0.00067717 | 0.00067717 | 0.00067717 |   0.0 |  0.33
Kspace  | 0.021239   | 0.021239   | 0.021239   |   0.0 | 10.22
Neigh   | 0.004955   | 0.004955   | 0.004955   |   0.0 |  2.38
Comm    | 0.002444   | 0.002444   | 0.002444   |   0.0 |  1.18
Output  | 9.797e-06  | 9.797e-06  | 9.797e-06  |   0.0 |  0.00
Modify  | 0          | 0          | 0          |   0.0 |  0.00
Other   |            | 0.0009162  |            |       |  0.44

Nlocal:            192 ave         192 max         192 min
Histogram: 1 0 0 0 0 0 0 0 0 0
Nghost:           4725 ave        4725 max        4725 min
Histogram: 1 0 0 0 0 0 0 0 0 0
Neighs:          69010 ave       69010 max       69010 min
Histogram: 1 0 0 0 0 0 0 0 0 0

Total # of neighbors = 69010
Ave neighs/atom = 359.42708
Ave special neighs/atom = 2
Neighbor list builds = 4
Dangerous builds = 0
reset_timestep 0

# constrain water bonds and angles
fix fSHAKE all shake 0.0001 20 0 b 1 a 1
       0 = # of size 2 clusters
       0 = # of size 3 clusters
       0 = # of size 4 clusters
      64 = # of frozen angles
  find clusters CPU = 0.000 seconds

# remove Center of Mass movement every 100 steps
fix fMOM all momentum 100 linear 1 1 1

# define the neighbor list
neighbor 2.0 bin

# IMPORTANT: timestep and temperature and pressure
timestep 1.0
variable vTK equal 298.15
variable vPBAR equal 1.0

# randomize velocities
velocity all create ${vTK} 51591
velocity all create 298.15 51591

# thermostat (solving the ODE)
fix fTHERMO all nvt temp ${vTK} ${vTK} 100
fix fTHERMO all nvt temp 298.15 ${vTK} 100
fix fTHERMO all nvt temp 298.15 298.15 100

# print settings
thermo 1000
thermo_style custom step etotal ke pe temp press vol density
# trajectory output
dump dEQUI all custom 1000 equi.lammpstrj id element xu yu zu
dump_modify dEQUI element H O sort id

# equilibration
# 1 ns
run 1000000
PPPM initialization ...
  using 12-bit tables for long-range coulomb (src/kspace.cpp:342)
  G vector (1/distance) = 0.31260513
  grid = 12 12 12
  stencil order = 5
  estimated absolute RMS force accuracy = 0.0021455329
  estimated relative force accuracy = 6.4612085e-06
  using double precision FFTW3
  3d grid and FFT values/proc = 6859 1728
Generated 1 of 1 mixed pair_coeff terms from geometric mixing rule
Per MPI rank memory allocation (min/avg/max) = 9.756 | 9.756 | 9.756 Mbytes
   Step         TotEng         KinEng         PotEng          Temp          Press          Volume        Density
         0  -893.52758      112.86852     -1006.3961      298.15        -1090.6526      1920.3708      0.9969611
      1000  -658.65996      96.231854     -754.89181      254.20309     -1229.8636      1920.3708      0.9969611
      2000  -621.50628      125.11065     -746.61693      330.48843     -3063.3302      1920.3708      0.9969611
      3000  -658.47166      114.88633     -773.35799      303.48019      781.11216      1920.3708      0.9969611
      4000  -641.2588       124.72739     -765.98619      329.47603     -3021.2923      1920.3708      0.9969611
      5000  -687.3197       103.52344     -790.84314      273.46432      1348.0344      1920.3708      0.9969611
      6000  -685.47886      115.02449     -800.50335      303.84515      3975.3469      1920.3708      0.9969611
      7000  -673.48684      118.37966     -791.8665       312.70806      2373.6964      1920.3708      0.9969611
      8000  -670.77458      124.25833     -795.03291      328.23696     -395.10842      1920.3708      0.9969611
      9000  -662.6861       116.27291     -778.95901      307.14293      119.09745      1920.3708      0.9969611
     10000  -675.46814      120.16775     -795.63588      317.4314      -2070.6827      1920.3708      0.9969611
     11000  -657.98765      130.49617     -788.48382      344.71466     -731.56779      1920.3708      0.9969611
     12000  -666.4696       110.42811     -776.89771      291.70348     -1739.7966      1920.3708      0.9969611
     13000  -690.08275      111.0781      -801.16085      293.42047     -516.1352       1920.3708      0.9969611
     14000  -689.72009      109.34262     -799.06271      288.83608      2305.8825      1920.3708      0.9969611
     15000  -673.70031      122.32379     -796.02411      323.12675     -1477.2512      1920.3708      0.9969611
     16000  -694.57065      116.16765     -810.7383       306.86489      1605.5095      1920.3708      0.9969611
     17000  -662.81317      116.39832     -779.21149      307.4742      -132.47763      1920.3708      0.9969611
     18000  -657.35996      121.85588     -779.21584      321.89073     -2697.2974      1920.3708      0.9969611
     19000  -679.26026      119.18598     -798.44624      314.83801     -56.842014      1920.3708      0.9969611
     20000  -668.70647      125.76956     -794.47603      332.22898     -650.7634       1920.3708      0.9969611
     21000  -649.58967      122.02624     -771.61591      322.34074     -3535.0548      1920.3708      0.9969611
     22000  -705.62768      100.56171     -806.18938      265.6407      -2446.6721      1920.3708      0.9969611
     23000  -663.97369      118.37956     -782.35325      312.70779      1255.9719      1920.3708      0.9969611
     24000  -667.35721      114.31821     -781.67542      301.97946     -204.07863      1920.3708      0.9969611
     25000  -716.2386       98.263844     -814.50244      259.57073     -2332.5111      1920.3708      0.9969611
     26000  -669.15079      130.76327     -799.91406      345.42021     -1374.6853      1920.3708      0.9969611
     27000  -706.22894      99.89889      -806.12783      263.88982     -3740.3891      1920.3708      0.9969611
     28000  -679.29022      117.80499     -797.09521      311.19003     -2283.2249      1920.3708      0.9969611
     29000  -644.79142      121.33171     -766.12313      320.50611     -1503.981       1920.3708      0.9969611
     30000  -652.88733      106.73085     -759.61818      281.93691     -3238.9977      1920.3708      0.9969611
     31000  -670.35923      106.42226     -776.78149      281.12175     -2651.9876      1920.3708      0.9969611
     32000  -655.04035      128.40458     -783.44493      339.18957     -542.47275      1920.3708      0.9969611
     33000  -660.64163      112.57906     -773.22069      297.38537     -3759.568       1920.3708      0.9969611
     34000  -681.77137      115.60239     -797.37376      305.3717       2107.6789      1920.3708      0.9969611
     35000  -670.47224      118.1305      -788.60274      312.04987      224.20757      1920.3708      0.9969611
     36000  -662.91293      111.93643     -774.84936      295.6878      -991.51409      1920.3708      0.9969611
     37000  -657.82666      122.91409     -780.74075      324.68607     -946.12198      1920.3708      0.9969611
     38000  -681.25885      108.06722     -789.32608      285.46703     -89.689447      1920.3708      0.9969611
     39000  -663.4589       115.08741     -778.54631      304.01136      381.39579      1920.3708      0.9969611
     40000  -687.08763      99.75023      -786.83786      263.49713     -4021.3641      1920.3708      0.9969611
     41000  -648.97224      123.98111     -772.95335      327.50467      574.81954      1920.3708      0.9969611
     42000  -681.17303      117.72625     -798.89928      310.98203     -824.77703      1920.3708      0.9969611
     43000  -695.08677      108.68219     -803.76896      287.09151      762.57922      1920.3708      0.9969611
     44000  -666.88453      117.05596     -783.94048      309.21141     -1234.6233      1920.3708      0.9969611
     45000  -666.03661      116.71719     -782.7538       308.31652      1154.8181      1920.3708      0.9969611
     46000  -680.39004      111.09229     -791.48233      293.45797      369.71596      1920.3708      0.9969611
     47000  -653.29967      128.17653     -781.4762       338.58716     -2220.6899      1920.3708      0.9969611
     48000  -686.95105      114.22565     -801.1767       301.73496     -1969.7555      1920.3708      0.9969611
     49000  -708.3474       98.754381     -807.10178      260.86652     -809.9093       1920.3708      0.9969611
     50000  -660.11113      105.57369     -765.68483      278.88021     -983.32179      1920.3708      0.9969611
     51000  -659.11026      118.64508     -777.75534      313.40918     -334.57987      1920.3708      0.9969611
     52000  -682.11926      109.56901     -791.68827      289.4341      -113.6339       1920.3708      0.9969611
     53000  -722.14534      98.544137     -820.68947      260.31115     -944.22759      1920.3708      0.9969611
     54000  -670.4884       118.64463     -789.13303      313.40799     -691.66549      1920.3708      0.9969611
     55000  -665.79026      122.96019     -788.75045      324.80783     -213.40085      1920.3708      0.9969611
     56000  -679.15583      116.1295      -795.28533      306.7641      -942.75113      1920.3708      0.9969611
     57000  -660.78103      129.8887      -790.66973      343.10998      634.3267       1920.3708      0.9969611
     58000  -662.81068      124.38738     -787.19806      328.57786      553.31652      1920.3708      0.9969611
     59000  -676.87653      117.49137     -794.36789      310.36157      498.29727      1920.3708      0.9969611
     60000  -675.96925      115.4029      -791.37216      304.84475      2311.0867      1920.3708      0.9969611
     61000  -652.39054      111.6283      -764.01884      294.87387      1134.6365      1920.3708      0.9969611
     62000  -647.75939      124.45795     -772.21734      328.76428     -245.74473      1920.3708      0.9969611
     63000  -664.60715      107.91258     -772.51972      285.05853     -588.01474      1920.3708      0.9969611
     64000  -701.82568      106.63777     -808.46345      281.69104     -3266.1262      1920.3708      0.9969611
     65000  -673.0091       114.64811     -787.65722      302.85092      1158.1663      1920.3708      0.9969611
     66000  -663.54383      124.39117     -787.93499      328.58787     -3533.1042      1920.3708      0.9969611
     67000  -656.66432      113.72716     -770.39148      300.41815      1381.264       1920.3708      0.9969611
     68000  -684.72078      122.27862     -806.9994       323.00743     -723.78774      1920.3708      0.9969611
     69000  -676.48756      110.08064     -786.5682       290.78562      1787.6862      1920.3708      0.9969611
     70000  -679.44544      110.2432      -789.68864      291.21503      502.37988      1920.3708      0.9969611
     71000  -673.59238      106.85526     -780.44764      282.26555     -629.8216       1920.3708      0.9969611
     72000  -653.03806      112.69145     -765.7295       297.68224     -87.906677      1920.3708      0.9969611
     73000  -695.75355      108.98541     -804.73896      287.89249     -1206.973       1920.3708      0.9969611
     74000  -671.40107      112.10736     -783.50844      296.13935     -1499.7136      1920.3708      0.9969611
     75000  -649.46282      122.59905     -772.06187      323.85387     -824.85972      1920.3708      0.9969611
     76000  -669.54025      112.3126      -781.85284      296.68148      761.98036      1920.3708      0.9969611
     77000  -647.01469      112.56952     -759.58421      297.36018     -2883.449       1920.3708      0.9969611
     78000  -643.4614       123.56449     -767.0259       326.40415     -1937.3834      1920.3708      0.9969611
     79000  -636.25422      125.59082     -761.84504      331.75684     -875.68468      1920.3708      0.9969611
     80000  -644.28113      126.07876     -770.35989      333.04575     -673.29026      1920.3708      0.9969611
     81000  -645.02939      122.35476     -767.38415      323.20854      319.59604      1920.3708      0.9969611
     82000  -666.84926      97.298488     -764.14775      257.02068     -726.10363      1920.3708      0.9969611
     83000  -640.23408      125.39414     -765.62821      331.23728     -489.97251      1920.3708      0.9969611
     84000  -670.7678       118.689       -789.4568       313.5252      -2004.0458      1920.3708      0.9969611
     85000  -680.86409      105.91193     -786.77602      279.77368      421.49605      1920.3708      0.9969611
     86000  -675.73239      122.00504     -797.73743      322.28474      911.50323      1920.3708      0.9969611
     87000  -677.52723      115.41852     -792.94575      304.88599      2839.9362      1920.3708      0.9969611
     88000  -683.11502      120.8626      -803.97762      319.26692     -463.44932      1920.3708      0.9969611
     89000  -667.43848      125.44164     -792.88012      331.36276     -775.53515      1920.3708      0.9969611
     90000  -683.77039      99.350972     -783.12136      262.44246     -3633.2277      1920.3708      0.9969611
     91000  -682.11384      109.11056     -791.2244       288.22309     -3336.8739      1920.3708      0.9969611
     92000  -684.52185      123.27322     -807.79507      325.63474     -566.64945      1920.3708      0.9969611
     93000  -711.06419      87.945602     -799.00979      232.31439     -1583.1906      1920.3708      0.9969611
     94000  -677.26943      113.15039     -790.41982      298.89458      4441.1604      1920.3708      0.9969611
     95000  -662.41753      106.44453     -768.86206      281.18057     -1234.1494      1920.3708      0.9969611
     96000  -681.53242      115.66237     -797.19479      305.53015     -1376.6197      1920.3708      0.9969611
     97000  -671.3291       101.24009     -772.56919      267.4327       73.973714      1920.3708      0.9969611
     98000  -681.39283      104.1592      -785.55203      275.14372      1249.3881      1920.3708      0.9969611
     99000  -631.32507      140.76115     -772.08623      371.83031     -1266.1815      1920.3708      0.9969611
    100000  -690.72065      102.22078     -792.94144      270.02326     -504.35562      1920.3708      0.9969611
    101000  -665.68493      121.04362     -786.72855      319.74509     -342.60771      1920.3708      0.9969611
    102000  -681.25975      101.49814     -782.75789      268.11435     -414.12024      1920.3708      0.9969611
    103000  -667.55796      110.65937     -778.21733      292.31438     -771.08091      1920.3708      0.9969611
    104000  -670.28329      118.04572     -788.32901      311.82592     -126.66149      1920.3708      0.9969611
    105000  -669.81573      109.48266     -779.29839      289.20601     -3987.569       1920.3708      0.9969611
    106000  -666.40781      118.8204      -785.2282       313.87229      143.02537      1920.3708      0.9969611
    107000  -678.76054      99.660828     -778.42136      263.26097      1038.7615      1920.3708      0.9969611
    108000  -653.39685      105.51074     -758.9076       278.71392      285.95412      1920.3708      0.9969611
    109000  -645.2248       110.90143     -756.12623      292.95379     -1287.4266      1920.3708      0.9969611
    110000  -624.15857      124.06072     -748.21929      327.71496      1794.2006      1920.3708      0.9969611
    111000  -658.27184      119.96611     -778.23795      316.89877      2043.1505      1920.3708      0.9969611
    112000  -684.04783      119.44848     -803.4963       315.53141     -905.581        1920.3708      0.9969611
    113000  -700.05129      93.115576     -793.16687      245.97123      372.3596       1920.3708      0.9969611
    114000  -664.24544      105.28578     -769.53122      278.11967     -64.45915       1920.3708      0.9969611
    115000  -654.46337      118.80624     -773.26962      313.8349      -1244.6303      1920.3708      0.9969611
    116000  -690.7169       103.10318     -793.82008      272.35417     -870.86528      1920.3708      0.9969611
    117000  -706.60354      93.140701     -799.74424      246.0376      -1299.8711      1920.3708      0.9969611
    118000  -661.7845       117.97542     -779.75992      311.64023     -227.35521      1920.3708      0.9969611
    119000  -635.5002       107.97662     -743.47682      285.2277      -81.166137      1920.3708      0.9969611
    120000  -651.51249      110.65994     -762.17244      292.31589     -3731.4219      1920.3708      0.9969611
    121000  -651.67215      108.85632     -760.52847      287.55149     -216.21411      1920.3708      0.9969611
    122000  -679.09383      102.62715     -781.72099      271.09672     -580.64683      1920.3708      0.9969611
    123000  -657.87662      108.49056     -766.36718      286.58531      745.8319       1920.3708      0.9969611
    124000  -657.36766      122.77478     -780.14244      324.31807      340.8985       1920.3708      0.9969611
    125000  -676.2431       117.76388     -794.00699      311.08144     -1639.9564      1920.3708      0.9969611
    126000  -672.83387      115.23628     -788.07015      304.4046       4556.8074      1920.3708      0.9969611
    127000  -659.59884      115.14158     -774.74042      304.15445     -430.79988      1920.3708      0.9969611
    128000  -661.45301      121.55143     -783.00444      321.0865       476.48698      1920.3708      0.9969611
    129000  -676.11714      110.50526     -786.6224       291.90729     -1523.2726      1920.3708      0.9969611
    130000  -678.26312      112.17994     -790.44306      296.33107      1385.7638      1920.3708      0.9969611
    131000  -658.42194      123.14447     -781.5664       325.29462      365.70668      1920.3708      0.9969611
    132000  -688.62271      103.93732     -792.56003      274.55762     -2335.7214      1920.3708      0.9969611
    133000  -640.06495      133.7762      -773.84114      353.37907      797.68773      1920.3708      0.9969611
    134000  -668.22897      112.23888     -780.46785      296.48676     -1201.8005      1920.3708      0.9969611
    135000  -668.42627      100.52396     -768.95024      265.541        159.10087      1920.3708      0.9969611
    136000  -668.55701      113.68767     -782.24468      300.31383     -2979.4476      1920.3708      0.9969611
    137000  -678.62246      116.43005     -795.05251      307.55803     -565.55114      1920.3708      0.9969611
    138000  -689.05566      110.04655     -799.10221      290.69557      442.56482      1920.3708      0.9969611
    139000  -671.12681      122.33109     -793.4579       323.14602     -129.06382      1920.3708      0.9969611
    140000  -689.59277      102.83544     -792.42821      271.64692      721.53777      1920.3708      0.9969611
    141000  -673.38708      115.05597     -788.44305      303.92829     -213.70432      1920.3708      0.9969611
    142000  -672.7434       114.80138     -787.54477      303.25577     -2247.8482      1920.3708      0.9969611
    143000  -659.65625      109.49414     -769.15039      289.23635     -2921.7675      1920.3708      0.9969611
    144000  -654.87524      113.41371     -768.28895      299.59016     -1445.9581      1920.3708      0.9969611
    145000  -647.24662      125.79377     -773.04039      332.29295     -813.00462      1920.3708      0.9969611
    146000  -676.05874      104.53435     -780.59309      276.1347       3524.9015      1920.3708      0.9969611
    147000  -664.47128      104.18957     -768.66085      275.22395     -3076.9174      1920.3708      0.9969611
    148000  -657.62225      121.11526     -778.73752      319.93434     -759.97178      1920.3708      0.9969611
    149000  -657.61088      127.63511     -785.24598      337.15695      1118.6047      1920.3708      0.9969611
    150000  -660.31669      113.04326     -773.35995      298.61159      149.34664      1920.3708      0.9969611
    151000  -662.62194      125.15765     -787.77959      330.61258     -1472.3447      1920.3708      0.9969611
    152000  -675.50933      119.46804     -794.97737      315.58308     -2770.7944      1920.3708      0.9969611
    153000  -683.52623      112.80593     -796.33215      297.98465      1302.6321      1920.3708      0.9969611
    154000  -681.37979      107.27429     -788.65408      283.37245     -3304.2031      1920.3708      0.9969611
    155000  -662.56927      108.36142     -770.93068      286.24417     -2509.5945      1920.3708      0.9969611
    156000  -662.57855      114.95658     -777.53513      303.66575     -295.74444      1920.3708      0.9969611
    157000  -689.5849       106.22626     -795.81116      280.60402      1991.6797      1920.3708      0.9969611
    158000  -655.49477      116.01261     -771.50738      306.45533     -1990.4578      1920.3708      0.9969611
    159000  -672.57024      107.22974     -779.79998      283.25478     -1476.7772      1920.3708      0.9969611
    160000  -702.66877      95.477861     -798.14663      252.21137      1009.2052      1920.3708      0.9969611
    161000  -676.46931      113.02597     -789.49528      298.56592     -905.8          1920.3708      0.9969611
    162000  -693.70419      107.2691      -800.97329      283.35874      2613.097       1920.3708      0.9969611
    163000  -695.08533      101.47781     -796.56313      268.06064      391.64795      1920.3708      0.9969611
    164000  -676.1667       112.1991      -788.3658       296.38168     -232.60829      1920.3708      0.9969611
    165000  -671.01493      124.85135     -795.86627      329.80346      169.46616      1920.3708      0.9969611
    166000  -677.48461      110.06324     -787.54785      290.73964     -2581.0377      1920.3708      0.9969611
    167000  -676.83743      112.09021     -788.92764      296.09403     -127.3817       1920.3708      0.9969611
    168000  -685.46707      105.18259     -790.64967      277.84709      1736.8577      1920.3708      0.9969611
    169000  -675.45438      114.14645     -789.60083      301.52574     -2723.5556      1920.3708      0.9969611
    170000  -669.60537      110.57181     -780.17718      292.08307     -556.42979      1920.3708      0.9969611
    171000  -664.95745      117.58124     -782.53869      310.59898     -1420.4721      1920.3708      0.9969611
    172000  -681.35703      118.67331     -800.03034      313.48375      438.90768      1920.3708      0.9969611
    173000  -668.54291      113.79285     -782.33576      300.59168     -2034.1435      1920.3708      0.9969611
    174000  -697.56579      100.66233     -798.22812      265.90649     -710.10537      1920.3708      0.9969611
    175000  -688.92772      112.88759     -801.8153       298.20036     -958.93526      1920.3708      0.9969611
    176000  -666.22085      105.38874     -771.60959      278.39164      93.294523      1920.3708      0.9969611
    177000  -671.18123      120.33581     -791.51703      317.87535     -47.408537      1920.3708      0.9969611
    178000  -651.37695      115.69421     -767.07116      305.61425     -795.33945      1920.3708      0.9969611
    179000  -675.29012      100.05616     -775.34628      264.30525     -1612.3672      1920.3708      0.9969611
    180000  -645.24142      115.76279     -761.00421      305.79542     -554.53669      1920.3708      0.9969611
    181000  -677.61028      118.86803     -796.47831      313.99812      3631.6931      1920.3708      0.9969611
    182000  -668.19079      117.8018      -785.99259      311.18159      2054.5478      1920.3708      0.9969611
    183000  -690.02585      101.77225     -791.7981       268.83844     -2014.4795      1920.3708      0.9969611
    184000  -657.07183      104.76547     -761.83731      276.74524     -792.30107      1920.3708      0.9969611
    185000  -681.33016      108.13896     -789.46912      285.65654     -3603.9006      1920.3708      0.9969611
    186000  -657.963        115.22394     -773.18695      304.37201     -1587.7549      1920.3708      0.9969611
    187000  -679.27649      108.71791     -787.9944       287.18586     -2116.737       1920.3708      0.9969611
    188000  -701.84571      113.54808     -815.39379      299.9451      -1222.1025      1920.3708      0.9969611
    189000  -690.68005      107.66332     -798.34337      284.4001       1504.3062      1920.3708      0.9969611
    190000  -696.2288       100.53535     -796.76415      265.57108     -549.43593      1920.3708      0.9969611
    191000  -681.50084      109.07615     -790.57699      288.13218     -2017.6625      1920.3708      0.9969611
    192000  -689.29299      111.50938     -800.80236      294.55972      2417.4993      1920.3708      0.9969611
    193000  -658.03352      112.71885     -770.75238      297.75464     -1255.1711      1920.3708      0.9969611
    194000  -676.02689      113.86168     -789.88857      300.7735      -3820.5497      1920.3708      0.9969611
    195000  -665.8002       116.36947     -782.16967      307.398       -781.97008      1920.3708      0.9969611
    196000  -680.96953      112.19678     -793.16631      296.37554      1330.7198      1920.3708      0.9969611
    197000  -671.97572      109.64372     -781.61944      289.63148     -2346.5         1920.3708      0.9969611
    198000  -694.75914      109.59284     -804.35197      289.49705      302.1804       1920.3708      0.9969611
    199000  -674.91477      115.40086     -790.31563      304.83935      1451.7536      1920.3708      0.9969611
    200000  -682.64488      108.5579      -791.20279      286.76321      490.61198      1920.3708      0.9969611
    201000  -670.04668      116.67533     -786.72201      308.20595     -1777.557       1920.3708      0.9969611
    202000  -657.33027      118.34191     -775.67217      312.60832     -1479.409       1920.3708      0.9969611
    203000  -662.13703      107.12538     -769.26241      282.97909     -602.14791      1920.3708      0.9969611
    204000  -688.56123      118.89574     -807.45697      314.07131     -2116.8038      1920.3708      0.9969611
    205000  -678.82457      118.01017     -796.83475      311.73202     -929.06821      1920.3708      0.9969611
    206000  -655.19887      114.87108     -770.06996      303.43991      849.06246      1920.3708      0.9969611
    207000  -679.78572      114.8033      -794.58902      303.26085     -1259.9235      1920.3708      0.9969611
    208000  -655.41302      125.72928     -781.1423       332.12259     -728.4693       1920.3708      0.9969611
    209000  -684.2282       111.71151     -795.93971      295.09367      170.36146      1920.3708      0.9969611
    210000  -635.72         129.40958     -765.12959      341.84436     -114.38395      1920.3708      0.9969611
    211000  -673.29797      113.55621     -786.85418      299.96658     -4004.823       1920.3708      0.9969611
    212000  -666.05231      113.02666     -779.07897      298.56772     -1540.8487      1920.3708      0.9969611
    213000  -653.19716      110.71791     -763.91507      292.46901      727.64514      1920.3708      0.9969611
    214000  -656.05968      113.78418     -769.84386      300.56878     -1100.6624      1920.3708      0.9969611
    215000  -639.5302       118.96884     -758.49904      314.26441      571.72849      1920.3708      0.9969611
    216000  -653.12803      108.7451      -761.87313      287.2577      -1785.92        1920.3708      0.9969611
    217000  -672.39517      106.96193     -779.3571       282.54733      1603.1259      1920.3708      0.9969611
    218000  -669.77004      108.45284     -778.22288      286.48566      825.52199      1920.3708      0.9969611
    219000  -667.56499      110.09323     -777.65822      290.81888     -3666.949       1920.3708      0.9969611
    220000  -682.1073       106.81839     -788.92569      282.16815     -612.74167      1920.3708      0.9969611
    221000  -670.20891      113.99287     -784.20178      301.12006     -1870.7145      1920.3708      0.9969611
    222000  -667.01516      115.56834     -782.5835       305.28176     -1666.0325      1920.3708      0.9969611
    223000  -674.45403      102.7718      -777.22583      271.47882     -2529.8992      1920.3708      0.9969611
    224000  -680.21466      111.05267     -791.26733      293.3533       1324.1586      1920.3708      0.9969611
    225000  -684.0354       93.596104     -777.6315       247.24058     -139.79351      1920.3708      0.9969611
    226000  -651.66051      119.13748     -770.79799      314.70989     -1749.6743      1920.3708      0.9969611
    227000  -655.0338       130.38768     -785.42147      344.42806      739.6742       1920.3708      0.9969611
    228000  -674.59374      115.87082     -790.46455      306.08077     -1791.9141      1920.3708      0.9969611
    229000  -653.03448      120.25453     -773.28901      317.66066      954.13762      1920.3708      0.9969611
    230000  -651.32953      114.96056     -766.29008      303.67626      4164.7563      1920.3708      0.9969611
    231000  -677.52864      115.77085     -793.29949      305.81669     -820.40059      1920.3708      0.9969611
    232000  -665.69426      114.26477     -779.95903      301.8383       91.195533      1920.3708      0.9969611
    233000  -670.67443      109.18239     -779.85682      288.41283     -639.32195      1920.3708      0.9969611
    234000  -690.47317      105.62798     -796.10115      279.0236      -1315.0806      1920.3708      0.9969611
    235000  -680.26323      102.2017      -782.46493      269.97285      534.1626       1920.3708      0.9969611
    236000  -655.0326       123.42802     -778.46062      326.04364     -366.00209      1920.3708      0.9969611
    237000  -671.36783      108.34517     -779.713        286.20127     -413.59601      1920.3708      0.9969611
    238000  -672.2821       105.1752      -777.4573       277.82755     -2083.7748      1920.3708      0.9969611
    239000  -670.18088      117.19131     -787.37219      309.56895      606.57169      1920.3708      0.9969611
    240000  -701.7401       99.94456      -801.68466      264.01046     -4368.5258      1920.3708      0.9969611
    241000  -686.70945      113.44003     -800.14948      299.65968     -1442.3702      1920.3708      0.9969611
    242000  -698.42513      103.22833     -801.65346      272.68478     -1059.8198      1920.3708      0.9969611
    243000  -659.8872       118.97315     -778.86035      314.27581     -1901.9005      1920.3708      0.9969611
    244000  -652.83551      117.01915     -769.85466      309.11416      2936.185       1920.3708      0.9969611
    245000  -680.26093      114.15117     -794.4121       301.5382      -130.46758      1920.3708      0.9969611
    246000  -661.2796       113.40286     -774.68246      299.5615      -1514.4423      1920.3708      0.9969611
    247000  -690.93269      109.77423     -800.70691      289.9762      -563.01194      1920.3708      0.9969611
    248000  -698.52469      115.46294     -813.98763      305.00335      2191.7697      1920.3708      0.9969611
    249000  -686.85349      96.983246     -783.83673      256.18795      1243.7122      1920.3708      0.9969611
    250000  -665.20865      112.646       -777.85465      297.56218     -40.859052      1920.3708      0.9969611
    251000  -654.61345      118.21387     -772.82732      312.27011     -677.8325       1920.3708      0.9969611
    252000  -635.23546      125.9425      -761.17795      332.68581     -1915.7225      1920.3708      0.9969611
    253000  -684.36932      117.12697     -801.49629      309.39898     -1654.0273      1920.3708      0.9969611
    254000  -697.19552      106.12436     -803.31988      280.33483      1037.8526      1920.3708      0.9969611
    255000  -662.20718      124.08997     -786.29715      327.79222     -395.72671      1920.3708      0.9969611
    256000  -635.88441      115.51411     -751.39852      305.13851     -2336.4613      1920.3708      0.9969611
    257000  -640.89309      110.38113     -751.27423      291.57939     -139.45498      1920.3708      0.9969611
    258000  -666.63838      106.89338     -773.53176      282.36625     -2494.1566      1920.3708      0.9969611
    259000  -659.59588      109.96994     -769.56581      290.49319      617.14401      1920.3708      0.9969611
    260000  -670.05642      114.81469     -784.87112      303.29095      1234.6223      1920.3708      0.9969611
    261000  -671.06048      110.70083     -781.76131      292.42388      645.93573      1920.3708      0.9969611
    262000  -693.8381       107.22122     -801.05932      283.23226     -2026.6686      1920.3708      0.9969611
    263000  -663.78327      109.00906     -772.79233      287.95497     -413.3763       1920.3708      0.9969611
    264000  -686.75366      115.96097     -802.71463      306.31891     -455.50062      1920.3708      0.9969611
    265000  -646.70084      117.85609     -764.55693      311.325        328.17108      1920.3708      0.9969611
    266000  -684.07048      96.87372      -780.9442       255.89863     -2309.0411      1920.3708      0.9969611
    267000  -656.59825      120.49999     -777.09825      318.30906     -1007.7762      1920.3708      0.9969611
    268000  -667.52217      104.48325     -772.00541      275.99972     -1366.9738      1920.3708      0.9969611
    269000  -696.85192      101.15378     -798.0057       267.2047      -1587.0109      1920.3708      0.9969611
    270000  -688.9237       110.42163     -799.34533      291.68638     -1413.4423      1920.3708      0.9969611
    271000  -663.07011      117.63765     -780.70775      310.74797      175.8007       1920.3708      0.9969611
    272000  -689.49458      104.08913     -793.58372      274.95864     -2268.9048      1920.3708      0.9969611
    273000  -662.07386      123.7826      -785.85647      326.9803       67.258928      1920.3708      0.9969611
    274000  -674.47805      116.52927     -791.00733      307.82013      9.9456355      1920.3708      0.9969611
    275000  -660.39262      114.55537     -774.94798      302.60592     -530.58413      1920.3708      0.9969611
    276000  -665.57485      113.01104     -778.58589      298.52648     -1779.7778      1920.3708      0.9969611
    277000  -696.59362      96.599875     -793.19349      255.17524     -1906.2602      1920.3708      0.9969611
    278000  -668.27513      105.09188     -773.36702      277.60747      587.88007      1920.3708      0.9969611
    279000  -675.08423      125.89966     -800.98389      332.57264     -462.2761       1920.3708      0.9969611
    280000  -656.50225      120.55922     -777.06147      318.46551      1199.5094      1920.3708      0.9969611
    281000  -667.33847      109.19991     -776.53839      288.45912      46.003635      1920.3708      0.9969611
    282000  -682.72873      109.26681     -791.99554      288.63584     -2881.4721      1920.3708      0.9969611
    283000  -676.84789      108.19272     -785.04061      285.79856      639.44974      1920.3708      0.9969611
    284000  -658.84917      118.69086     -777.54003      313.5301      -1894.315       1920.3708      0.9969611
    285000  -687.24511      100.29753     -787.54264      264.94285     -4475.5988      1920.3708      0.9969611
    286000  -670.51214      111.23716     -781.7493       293.84065     -4073.3221      1920.3708      0.9969611
    287000  -683.96329      101.14177     -785.10507      267.17299     -1190.9701      1920.3708      0.9969611
    288000  -660.48697      107.66809     -768.15506      284.4127      -1528.7491      1920.3708      0.9969611
    289000  -669.62248      110.84588     -780.46835      292.80705     -710.54493      1920.3708      0.9969611
    290000  -626.22124      109.04952     -735.27076      288.06184      52.279322      1920.3708      0.9969611
    291000  -655.60934      114.18671     -769.79605      301.63209      1751.7289      1920.3708      0.9969611
    292000  -658.88209      116.2713      -775.15339      307.13866     -381.97215      1920.3708      0.9969611
    293000  -675.14078      102.25166     -777.39244      270.10483     -2344.481       1920.3708      0.9969611
    294000  -642.777        121.57218     -764.34918      321.14133     -3279.2981      1920.3708      0.9969611
    295000  -676.94199      115.96976     -792.91175      306.34213     -1135.9616      1920.3708      0.9969611
    296000  -686.74393      110.78522     -797.52914      292.64681      1486.6035      1920.3708      0.9969611
    297000  -663.39037      114.29028     -777.68065      301.90567      1853.0378      1920.3708      0.9969611
    298000  -684.34301      106.00861     -790.35162      280.02907      3311.6129      1920.3708      0.9969611
    299000  -669.71123      118.69628     -788.40751      313.54443      410.44776      1920.3708      0.9969611
    300000  -714.4672       101.86635     -816.33355      269.08701     -1406.2705      1920.3708      0.9969611
    301000  -670.18343      104.89916     -775.08259      277.09838     -2925.9664      1920.3708      0.9969611
    302000  -680.31216      110.78688     -791.09904      292.6512      -204.36132      1920.3708      0.9969611
    303000  -654.07765      127.85818     -781.93583      337.74623     -1076.4401      1920.3708      0.9969611
    304000  -671.08239      99.296181     -770.37857      262.29772      928.35974      1920.3708      0.9969611
    305000  -659.43647      112.06806     -771.50452      296.03552     -5784.7794      1920.3708      0.9969611
    306000  -670.33911      112.78656     -783.12567      297.9335      -1535.5785      1920.3708      0.9969611
    307000  -684.4092       102.06073     -786.46993      269.60048     -2897.1118      1920.3708      0.9969611
    308000  -661.71442      109.33511     -771.04954      288.81626      1275.6151      1920.3708      0.9969611
    309000  -665.03799      112.72861     -777.7666       297.78042     -2500.0386      1920.3708      0.9969611
    310000  -668.00335      115.93022     -783.93357      306.23769      643.82895      1920.3708      0.9969611
    311000  -656.20654      102.91864     -759.12518      271.86669     -3129.4872      1920.3708      0.9969611
    312000  -649.00363      115.13315     -764.13678      304.13218     -851.63727      1920.3708      0.9969611
    313000  -675.29278      114.64963     -789.94241      302.85492     -986.98283      1920.3708      0.9969611
    314000  -680.70021      111.40018     -792.10039      294.27127     -571.99994      1920.3708      0.9969611
    315000  -671.997        120.68803     -792.68503      318.80577      867.13984      1920.3708      0.9969611
    316000  -667.85364      113.13965     -780.99329      298.8662      -510.9067       1920.3708      0.9969611
    317000  -673.46958      105.11924     -778.58881      277.67973     -638.84298      1920.3708      0.9969611
    318000  -675.76151      105.71215     -781.47366      279.24596     -1731.2919      1920.3708      0.9969611
    319000  -654.59695      140.60785     -795.2048       371.42535      253.12991      1920.3708      0.9969611
    320000  -663.7386       109.18909     -772.92769      288.43052      1828.8903      1920.3708      0.9969611
    321000  -682.29844      93.903876     -776.20232      248.05358     -1921.1774      1920.3708      0.9969611
    322000  -664.24844      116.07492     -780.32337      306.61993     -5884.2409      1920.3708      0.9969611
    323000  -672.50546      109.4055      -781.91096      289.00218     -1165.3386      1920.3708      0.9969611
    324000  -670.72613      110.11803     -780.84416      290.88438     -1336.8347      1920.3708      0.9969611
    325000  -662.31575      119.47033     -781.78609      315.58914      638.35057      1920.3708      0.9969611
    326000  -668.27653      114.38369     -782.66022      302.15242     -1146.9485      1920.3708      0.9969611
    327000  -691.31156      103.07176     -794.38332      272.27119     -28.852653      1920.3708      0.9969611
    328000  -688.64791      95.925319     -784.57323      253.39336      942.72494      1920.3708      0.9969611
    329000  -655.18179      120.93492     -776.1167       319.45794     -119.48715      1920.3708      0.9969611
    330000  -663.87521      122.05888     -785.93409      322.42697     -1220.2277      1920.3708      0.9969611
    331000  -684.7758       106.76205     -791.53786      282.01934     -1382.3522      1920.3708      0.9969611
    332000  -671.75274      102.9056      -774.65834      271.83227     -1044.5898      1920.3708      0.9969611
    333000  -650.78231      115.25221     -766.03451      304.44667      2163.3193      1920.3708      0.9969611
    334000  -665.74703      112.62951     -778.37654      297.51864      1481.486       1920.3708      0.9969611
    335000  -654.87812      131.08744     -785.96556      346.27653      242.58439      1920.3708      0.9969611
    336000  -657.50096      128.75371     -786.25467      340.11181      419.27897      1920.3708      0.9969611
    337000  -689.08703      102.65774     -791.74477      271.17751      1418.4515      1920.3708      0.9969611
    338000  -672.29333      109.81222     -782.10554      290.07656      579.7072       1920.3708      0.9969611
    339000  -669.40602      116.21804     -785.62406      306.99799     -465.6071       1920.3708      0.9969611
    340000  -658.46214      130.69541     -789.15755      345.24096     -480.32336      1920.3708      0.9969611
    341000  -688.12896      103.12468     -791.25364      272.41097      4195.3033      1920.3708      0.9969611
    342000  -660.17664      111.44288     -771.61952      294.38407     -866.2294       1920.3708      0.9969611
    343000  -683.9703       100.31218     -784.28247      264.98155     -2768.7951      1920.3708      0.9969611
    344000  -663.07371      132.24019     -795.31389      349.32159     -3256.5551      1920.3708      0.9969611
    345000  -671.0736       103.52905     -774.60265      273.47915     -444.56181      1920.3708      0.9969611
    346000  -661.54377      123.50032     -785.04409      326.23462     -1489.6315      1920.3708      0.9969611
    347000  -651.76223      123.63587     -775.3981       326.5927      -694.78835      1920.3708      0.9969611
    348000  -674.94331      107.96451     -782.90782      285.19571     -1817.8081      1920.3708      0.9969611
    349000  -687.26987      107.0886      -794.35847      282.88193     -1715.2831      1920.3708      0.9969611
    350000  -663.56533      113.12195     -776.68728      298.81945     -2635.3723      1920.3708      0.9969611
    351000  -690.60747      110.10719     -800.71465      290.85574     -1672.5754      1920.3708      0.9969611
    352000  -663.86146      134.64945     -798.51091      355.68582      1736.7287      1920.3708      0.9969611
    353000  -690.67915      109.60332     -800.28248      289.52475     -26.111284      1920.3708      0.9969611
    354000  -688.43428      106.40959     -794.84388      281.0883       1704.7928      1920.3708      0.9969611
    355000  -679.29598      123.42234     -802.71833      326.02865      1232.905       1920.3708      0.9969611
    356000  -704.73888      95.551047     -800.28993      252.40469     -1143.5935      1920.3708      0.9969611
    357000  -638.10843      106.12552     -744.23395      280.33791     -2646.0862      1920.3708      0.9969611
    358000  -633.18459      118.79216     -751.97675      313.79771     -3288.7893      1920.3708      0.9969611
    359000  -654.81478      115.27147     -770.08624      304.49755     -1779.6349      1920.3708      0.9969611
    360000  -676.16078      104.97343     -781.13421      277.29457     -1562.3785      1920.3708      0.9969611
    361000  -676.3088       118.02741     -794.3362       311.77756     -2965.4672      1920.3708      0.9969611
    362000  -673.33318      110.86157     -784.19476      292.84851      867.63356      1920.3708      0.9969611
    363000  -673.44092      107.308       -780.74891      283.46149      1873.9284      1920.3708      0.9969611
    364000  -674.57719      104.61597     -779.19316      276.35032     -1019.2379      1920.3708      0.9969611
    365000  -699.79909      107.93555     -807.73464      285.11921     -2582.7362      1920.3708      0.9969611
    366000  -694.76175      107.42902     -802.19077      283.78118     -273.30191      1920.3708      0.9969611
    367000  -693.87924      114.3107      -808.18993      301.95961     -1820.4777      1920.3708      0.9969611
    368000  -693.96383      93.33964      -787.30347      246.56311     -180.2767       1920.3708      0.9969611
    369000  -660.24316      129.30771     -789.55088      341.57526      1495.2897      1920.3708      0.9969611
    370000  -682.95037      120.68513     -803.6355       318.79811     -1024.1074      1920.3708      0.9969611
    371000  -677.58579      104.7065      -782.29228      276.58945      1064.9492      1920.3708      0.9969611
    372000  -668.2054       123.64872     -791.85412      326.62663      1731.78        1920.3708      0.9969611
    373000  -678.89157      114.57767     -793.46924      302.66483     -1180.3975      1920.3708      0.9969611
    374000  -687.22963      95.306567     -782.5362       251.75888      396.11458      1920.3708      0.9969611
    375000  -657.73787      116.16296     -773.90083      306.85249     -1007.623       1920.3708      0.9969611
    376000  -673.81259      117.96147     -791.77405      311.60337      500.67603      1920.3708      0.9969611
    377000  -684.21319      110.48577     -794.69896      291.8558       1218.2066      1920.3708      0.9969611
    378000  -679.25357      118.25385     -797.50742      312.37571      1553.5772      1920.3708      0.9969611
    379000  -666.27417      105.35265     -771.62681      278.29629      1596.2493      1920.3708      0.9969611
    380000  -685.60303      109.00926     -794.6123       287.95551     -1897.1489      1920.3708      0.9969611
    381000  -664.92358      109.24465     -774.16823      288.57729      1644.7635      1920.3708      0.9969611
    382000  -663.48626      113.51775     -777.00401      299.86498      1245.7478      1920.3708      0.9969611
    383000  -690.55413      106.219       -796.77313      280.58482     -261.96479      1920.3708      0.9969611
    384000  -659.18099      120.12147     -779.30246      317.30917     -1006.7522      1920.3708      0.9969611
    385000  -688.0978       103.96577     -792.06357      274.63278     -1165.3875      1920.3708      0.9969611
    386000  -680.21621      106.25115     -786.46735      280.66974     -759.27627      1920.3708      0.9969611
    387000  -666.63181      111.14268     -777.77449      293.59106      0.13080133     1920.3708      0.9969611
    388000  -653.14869      120.18268     -773.33137      317.47085     -3339.4003      1920.3708      0.9969611
    389000  -648.9971       132.41084     -781.40793      349.77237     -2940.6245      1920.3708      0.9969611
    390000  -654.35651      127.76268     -782.11919      337.49395      614.2769       1920.3708      0.9969611
    391000  -676.36697      102.74831     -779.11527      271.41675      206.53353      1920.3708      0.9969611
    392000  -660.75046      110.23718     -770.98764      291.19913      2733.5897      1920.3708      0.9969611
    393000  -655.81808      117.747       -773.56508      311.03684     -138.50443      1920.3708      0.9969611
    394000  -662.10173      106.16126     -768.26299      280.43232      2548.2349      1920.3708      0.9969611
    395000  -684.69736      107.99169     -792.68905      285.26751     -955.14375      1920.3708      0.9969611
    396000  -636.90444      133.4563      -770.36074      352.53404     -561.92472      1920.3708      0.9969611
    397000  -668.46622      113.01135     -781.47758      298.5273       1063.6033      1920.3708      0.9969611
    398000  -682.49272      108.5667      -791.05942      286.78644     -531.00356      1920.3708      0.9969611
    399000  -670.59603      113.96858     -784.56461      301.05589     -1154.3533      1920.3708      0.9969611
    400000  -652.11022      117.76545     -769.87567      311.08557     -399.23167      1920.3708      0.9969611
    401000  -636.44093      123.87261     -760.31354      327.21805     -2731.2738      1920.3708      0.9969611
    402000  -663.77933      122.58647     -786.3658       323.82064     -1536.9859      1920.3708      0.9969611
    403000  -679.49398      109.63273     -789.12671      289.60244      425.97496      1920.3708      0.9969611
    404000  -673.50978      106.42164     -779.93142      281.12013      711.60597      1920.3708      0.9969611
    405000  -693.67041      102.85397     -796.52438      271.69588     -240.80657      1920.3708      0.9969611
    406000  -658.76052      112.78309     -771.54361      297.92432      826.49617      1920.3708      0.9969611
    407000  -675.95678      117.18591     -793.14269      309.55467     -1178.7459      1920.3708      0.9969611
    408000  -693.4301       118.65787     -812.08797      313.44297      2451.53        1920.3708      0.9969611
    409000  -643.50073      109.3251      -752.82583      288.78982      259.81283      1920.3708      0.9969611
    410000  -658.10051      114.90794     -773.00845      303.53727      2709.0601      1920.3708      0.9969611
    411000  -688.00169      111.48497     -799.48665      294.49524     -968.65687      1920.3708      0.9969611
    412000  -667.63744      117.46404     -785.10149      310.28939     -1714.3544      1920.3708      0.9969611
    413000  -641.07695      118.23973     -759.31668      312.33842      1779.5174      1920.3708      0.9969611
    414000  -675.7667       109.46087     -785.22757      289.14845     -863.55382      1920.3708      0.9969611
    415000  -688.02491      100.7434      -788.76831      266.12066     -428.75325      1920.3708      0.9969611
    416000  -682.36599      105.6023      -787.9683       278.95578     -2135.1996      1920.3708      0.9969611
    417000  -687.77274      110.2464      -798.01914      291.22348      123.06886      1920.3708      0.9969611
    418000  -687.48254      105.95433     -793.43687      279.88568     -1433.1757      1920.3708      0.9969611
    419000  -677.22834      107.45601     -784.68435      283.85249      1435.6875      1920.3708      0.9969611
    420000  -639.66884      132.16636     -771.8352       349.12658     -1192.7468      1920.3708      0.9969611
    421000  -666.36709      106.72988     -773.09697      281.93436      2160.7357      1920.3708      0.9969611
    422000  -637.7195       126.14691     -763.86641      333.22578      307.65387      1920.3708      0.9969611
    423000  -641.60815      122.4559      -764.06405      323.47572      779.79686      1920.3708      0.9969611
    424000  -685.75461      112.21742     -797.97203      296.43006      1634.8589      1920.3708      0.9969611
    425000  -679.46599      96.389758     -775.85575      254.62021      59.755997      1920.3708      0.9969611
    426000  -680.78652      111.46998     -792.2565       294.45565     -1518.4543      1920.3708      0.9969611
    427000  -654.47768      125.62458     -780.10226      331.84602     -1931.3786      1920.3708      0.9969611
    428000  -668.01559      128.91172     -796.92731      340.52922     -1464.3859      1920.3708      0.9969611
    429000  -690.17243      111.52764     -801.70007      294.60798      231.09571      1920.3708      0.9969611
    430000  -653.55127      123.76383     -777.31511      326.93072     -1651.5906      1920.3708      0.9969611
    431000  -660.86137      105.60694     -766.46831      278.96802     -1138.4495      1920.3708      0.9969611
    432000  -686.99115      100.57634     -787.56749      265.67935     -622.33275      1920.3708      0.9969611
    433000  -661.34818      114.12902     -775.4772       301.4797       1187.3139      1920.3708      0.9969611
    434000  -678.6021       96.557819     -775.15992      255.06415     -35.653198      1920.3708      0.9969611
    435000  -668.3384       123.63092     -791.96932      326.57963     -1186.8241      1920.3708      0.9969611
    436000  -696.88201      99.383641     -796.26565      262.52876     -1314.1718      1920.3708      0.9969611
    437000  -673.72201      123.51469     -797.2367       326.27258      1250.4227      1920.3708      0.9969611
    438000  -670.67632      119.53306     -790.20938      315.75483     -1275.0508      1920.3708      0.9969611
    439000  -669.79991      107.84062     -777.64053      284.86845      441.22717      1920.3708      0.9969611
    440000  -683.96718      111.18172     -795.1489       293.69419     -610.24747      1920.3708      0.9969611
    441000  -675.89957      106.95865     -782.85821      282.53865     -386.60053      1920.3708      0.9969611
    442000  -677.96636      121.41153     -799.3779       320.71696     -1664.6155      1920.3708      0.9969611
    443000  -668.46752      113.06346     -781.53098      298.66493     -1030.6925      1920.3708      0.9969611
    444000  -662.53061      121.67234     -784.20295      321.40589     -139.41428      1920.3708      0.9969611
    445000  -655.28339      116.57233     -771.85572      307.93386      2028.843       1920.3708      0.9969611
    446000  -662.78651      107.81362     -770.60014      284.79714     -2946.0654      1920.3708      0.9969611
    447000  -650.23505      118.97814     -769.21319      314.28897     -1013.4568      1920.3708      0.9969611
    448000  -635.78226      121.50546     -757.28772      320.96508      404.32361      1920.3708      0.9969611
    449000  -684.47563      107.31761     -791.79324      283.48688     -2111.491       1920.3708      0.9969611
    450000  -669.31417      105.983       -775.29717      279.96143      287.5766       1920.3708      0.9969611
    451000  -682.78303      113.85795     -796.64098      300.76365     -1281.0542      1920.3708      0.9969611
    452000  -652.7966       121.01834     -773.81494      319.6783       493.31786      1920.3708      0.9969611
    453000  -674.86667      119.20749     -794.07416      314.89481      964.47207      1920.3708      0.9969611
    454000  -663.53856      127.45415     -790.9927       336.67894     -908.85303      1920.3708      0.9969611
    455000  -689.39235      107.71548     -797.10783      284.53788     -1194.3973      1920.3708      0.9969611
    456000  -659.36068      114.73779     -774.09847      303.08779     -1620.4527      1920.3708      0.9969611
    457000  -654.08865      119.72432     -773.81297      316.26005      1080.8643      1920.3708      0.9969611
    458000  -679.90631      100.3977      -780.30401      265.20747      1980.7649      1920.3708      0.9969611
    459000  -703.32073      103.48348     -806.80422      273.35878      1350.5114      1920.3708      0.9969611
    460000  -703.73732      103.67002     -807.40733      273.85151      1276.3452      1920.3708      0.9969611
    461000  -655.30346      106.80752     -762.11098      282.13944      372.61164      1920.3708      0.9969611
    462000  -672.18335      118.27424     -790.45759      312.42958     -298.51516      1920.3708      0.9969611
    463000  -662.10475      109.46019     -771.56493      289.14665     -922.2414       1920.3708      0.9969611
    464000  -690.32016      112.85581     -803.17597      298.11643     -3049.002       1920.3708      0.9969611
    465000  -657.67239      104.35484     -762.02723      275.66052     -1498.715       1920.3708      0.9969611
    466000  -688.52023      111.89087     -800.41111      295.56747     -424.82278      1920.3708      0.9969611
    467000  -670.12006      114.71941     -784.83947      303.03926      3384.6812      1920.3708      0.9969611
    468000  -679.88182      112.12509     -792.00692      296.18619      125.74857      1920.3708      0.9969611
    469000  -645.39512      136.48911     -781.88423      360.54541     -219.96321      1920.3708      0.9969611
    470000  -672.44686      115.35804     -787.8049       304.72623     -1959.7855      1920.3708      0.9969611
    471000  -647.41512      125.63204     -773.04716      331.86573     -209.10361      1920.3708      0.9969611
    472000  -666.86669      113.90642     -780.77311      300.89169     -2052.3858      1920.3708      0.9969611
    473000  -672.61799      106.08635     -778.70434      280.23441     -706.21477      1920.3708      0.9969611
    474000  -685.83468      103.26342     -789.0981       272.77746      1730.8071      1920.3708      0.9969611
    475000  -674.33943      116.77526     -791.11468      308.46992     -1117.5513      1920.3708      0.9969611
    476000  -674.88674      103.45149     -778.33823      273.27426     -1290.8         1920.3708      0.9969611
    477000  -657.16713      121.34509     -778.51222      320.54144      1099.5868      1920.3708      0.9969611
    478000  -681.13229      112.0678      -793.20009      296.03484     -3091.0972      1920.3708      0.9969611
    479000  -665.75492      106.44377     -772.19869      281.17858     -779.42957      1920.3708      0.9969611
    480000  -671.8354       110.04656     -781.88197      290.6956      -259.01289      1920.3708      0.9969611
    481000  -679.15289      118.97147     -798.12436      314.27137     -1469.3949      1920.3708      0.9969611
    482000  -679.96587      114.06355     -794.02941      301.30674      748.10627      1920.3708      0.9969611
    483000  -666.58239      111.62505     -778.20745      294.8653      -43.882825      1920.3708      0.9969611
    484000  -663.05887      108.86614     -771.92501      287.57743     -1677.9788      1920.3708      0.9969611
    485000  -675.80514      120.13228     -795.93741      317.33771      1879.5835      1920.3708      0.9969611
    486000  -685.94617      109.34732     -795.29349      288.8485      -541.86375      1920.3708      0.9969611
    487000  -675.03245      117.9965      -793.02895      311.69591      353.91889      1920.3708      0.9969611
    488000  -662.5905       129.97868     -792.56917      343.34766      3022.4421      1920.3708      0.9969611
    489000  -675.57361      111.72502     -787.29863      295.12936      905.31583      1920.3708      0.9969611
    490000  -706.47322      115.29405     -821.76728      304.55721     -965.59526      1920.3708      0.9969611
    491000  -683.59198      109.08176     -792.67374      288.14701      2512.959       1920.3708      0.9969611
    492000  -686.47462      103.93587     -790.41049      274.55377      1034.632       1920.3708      0.9969611
    493000  -667.02025      112.8732      -779.89346      298.16237      1413.0455      1920.3708      0.9969611
    494000  -653.97921      126.59337     -780.57258      334.40513     -1689.098       1920.3708      0.9969611
    495000  -679.87489      118.91789     -798.79278      314.12982     -407.49383      1920.3708      0.9969611
    496000  -696.58091      104.02434     -800.60525      274.78748      228.83093      1920.3708      0.9969611
    497000  -685.90287      105.9721      -791.87497      279.93262      202.89994      1920.3708      0.9969611
    498000  -656.76304      110.679       -767.44204      292.36622     -2325.7568      1920.3708      0.9969611
    499000  -656.0718       112.49865     -768.57045      297.17296      690.28828      1920.3708      0.9969611
    500000  -665.62208      115.51826     -781.14034      305.14947      267.59268      1920.3708      0.9969611
    501000  -660.95         122.93674     -783.88674      324.74589      803.86905      1920.3708      0.9969611
    502000  -633.56799      124.55121     -758.1192       329.01062     -560.2251       1920.3708      0.9969611
    503000  -664.99295      104.54444     -769.5374       276.16137     -2848.5441      1920.3708      0.9969611
    504000  -661.3602       121.6905      -783.0507       321.45386     -1457.1814      1920.3708      0.9969611
    505000  -672.07888      117.91032     -789.98921      311.46827      437.77135      1920.3708      0.9969611
    506000  -691.8634       105.32863     -797.19203      278.23286      664.06452      1920.3708      0.9969611
    507000  -692.27009      106.16083     -798.43092      280.43117      3260.087       1920.3708      0.9969611
    508000  -670.98187      111.94264     -782.92451      295.70422      2173.555       1920.3708      0.9969611
    509000  -690.42904      119.54561     -809.97465      315.78799     -542.52504      1920.3708      0.9969611
    510000  -690.84224      111.22741     -802.06965      293.81489      680.5914       1920.3708      0.9969611
    511000  -676.42556      108.01489     -784.44045      285.32881     -546.8133       1920.3708      0.9969611
    512000  -665.21824      115.22494     -780.44318      304.37464     -1853.5854      1920.3708      0.9969611
    513000  -672.02715      117.00736     -789.03451      309.08304      1469.4004      1920.3708      0.9969611
    514000  -711.82372      106.8557      -818.67942      282.26671      1653.9131      1920.3708      0.9969611
    515000  -634.85422      132.7073      -767.56152      350.55551      725.58861      1920.3708      0.9969611
    516000  -668.22068      116.0759      -784.29658      306.62252     -2152.8749      1920.3708      0.9969611
    517000  -686.84462      112.34642     -799.19104      296.77084     -1627.9585      1920.3708      0.9969611
    518000  -684.72287      103.12805     -787.85092      272.41987     -1230.5816      1920.3708      0.9969611
    519000  -697.57496      105.2307      -802.80566      277.97415      3093.2448      1920.3708      0.9969611
    520000  -704.97214      108.29187     -813.26401      286.06047      1561.2453      1920.3708      0.9969611
    521000  -660.99115      121.02424     -782.0154       319.6939       2356.6595      1920.3708      0.9969611
    522000  -678.45794      110.04833     -788.50628      290.70027     -157.5785       1920.3708      0.9969611
    523000  -675.43957      109.20555     -784.64513      288.47402      1365.7591      1920.3708      0.9969611
    524000  -661.389        97.753812     -759.14281      258.22345     -1633.1167      1920.3708      0.9969611
    525000  -693.90153      113.09659     -806.99812      298.75246      220.15344      1920.3708      0.9969611
    526000  -677.32745      116.19894     -793.52639      306.94754     -1548.1321      1920.3708      0.9969611
    527000  -676.48031      116.30846     -792.78877      307.23683     -120.7377       1920.3708      0.9969611
    528000  -694.75811      111.66408     -806.42219      294.96838      528.73227      1920.3708      0.9969611
    529000  -658.60274      127.91168     -786.51443      337.88755      561.85462      1920.3708      0.9969611
    530000  -666.81799      115.88402     -782.70202      306.11566      1563.5197      1920.3708      0.9969611
    531000  -673.37376      110.10544     -783.4792       290.85112      131.39508      1920.3708      0.9969611
    532000  -689.92895      111.15598     -801.08494      293.62622     -537.97992      1920.3708      0.9969611
    533000  -687.00356      104.99916     -792.00272      277.36254     -4198.8723      1920.3708      0.9969611
    534000  -666.41363      111.37165     -777.78527      294.19591     -833.66314      1920.3708      0.9969611
    535000  -662.49838      126.91315     -789.41153      335.24985      976.41431      1920.3708      0.9969611
    536000  -664.65996      127.74251     -792.40247      337.44066      1053.569       1920.3708      0.9969611
    537000  -659.26705      119.58035     -778.84739      315.87975     -2908.6891      1920.3708      0.9969611
    538000  -632.03275      124.40191     -756.43467      328.61625     -1758.6741      1920.3708      0.9969611
    539000  -677.74742      100.41759     -778.16501      265.26         417.18008      1920.3708      0.9969611
    540000  -682.22793      125.5376      -807.76553      331.61624     -1745.2729      1920.3708      0.9969611
    541000  -663.01984      125.37959     -788.39942      331.19884      914.25222      1920.3708      0.9969611
    542000  -675.01         114.03789     -789.04789      301.23896     -3035.2111      1920.3708      0.9969611
    543000  -682.86142      114.54305     -797.40448      302.57339     -1323.5222      1920.3708      0.9969611
    544000  -679.97751      118.01466     -797.99217      311.74387     -470.24527      1920.3708      0.9969611
    545000  -675.97318      114.13827     -790.11145      301.50412      1268.3535      1920.3708      0.9969611
    546000  -662.53628      116.56087     -779.09715      307.90359     -806.68171      1920.3708      0.9969611
    547000  -657.98836      117.05128     -775.03964      309.19903      425.02326      1920.3708      0.9969611
    548000  -658.20353      118.76077     -776.9643       313.71479     -2400.2293      1920.3708      0.9969611
    549000  -684.693        110.31434     -795.00734      291.40295     -49.575011      1920.3708      0.9969611
    550000  -668.71853      109.26986     -777.98839      288.64389     -3096.0202      1920.3708      0.9969611
    551000  -673.23545      103.38536     -776.62081      273.09957     -1085.2273      1920.3708      0.9969611
    552000  -638.93875      127.45343     -766.39218      336.67704     -2427.6523      1920.3708      0.9969611
    553000  -654.25471      113.7914      -768.04611      300.58784      354.43532      1920.3708      0.9969611
    554000  -669.04685      115.41538     -784.46224      304.87771     -62.569787      1920.3708      0.9969611
    555000  -685.05634      100.79894     -785.85527      266.26736     -1836.2238      1920.3708      0.9969611
    556000  -662.98243      116.26951     -779.25194      307.13395      747.68579      1920.3708      0.9969611
    557000  -664.52197      127.555       -792.07697      336.94535     -183.4918       1920.3708      0.9969611
    558000  -665.5385       119.70558     -785.24408      316.21056     -1400.0789      1920.3708      0.9969611
    559000  -678.91976      110.69156     -789.61132      292.39941     -311.28639      1920.3708      0.9969611
    560000  -671.39347      114.13381     -785.52729      301.49236     -207.10654      1920.3708      0.9969611
    561000  -682.92145      125.89536     -808.81681      332.5613      -2629.6654      1920.3708      0.9969611
    562000  -665.4509       120.30886     -785.75975      317.80416     -2099.5269      1920.3708      0.9969611
    563000  -670.0121       110.50745     -780.51955      291.91306     -2324.9261      1920.3708      0.9969611
    564000  -655.07667      124.20043     -779.2771       328.08402     -1156.8383      1920.3708      0.9969611
    565000  -653.64583      117.47828     -771.12411      310.327       -319.54681      1920.3708      0.9969611
    566000  -686.51995      107.73662     -794.25657      284.59374      556.21597      1920.3708      0.9969611
    567000  -691.871        106.30802     -798.17902      280.81999     -884.57935      1920.3708      0.9969611
    568000  -685.36272      112.32301     -797.68573      296.709        1917.2618      1920.3708      0.9969611
    569000  -711.0916       105.85373     -816.94532      279.61993     -585.73276      1920.3708      0.9969611
    570000  -664.44481      115.35946     -779.80427      304.73         2046.0705      1920.3708      0.9969611
    571000  -640.70472      125.63833     -766.34305      331.88233     -3235.1837      1920.3708      0.9969611
    572000  -681.44254      115.31821     -796.76075      304.62103      87.762236      1920.3708      0.9969611
    573000  -676.69249      120.23053     -796.92302      317.59725     -999.28048      1920.3708      0.9969611
    574000  -674.43133      110.967       -785.39833      293.12699     -1221.8007      1920.3708      0.9969611
    575000  -644.16746      121.55111     -765.71857      321.08565      1362.6079      1920.3708      0.9969611
    576000  -673.05712      114.61681     -787.67393      302.76824     -162.44613      1920.3708      0.9969611
    577000  -650.53115      123.97101     -774.50216      327.47798      819.10976      1920.3708      0.9969611
    578000  -687.2008       103.09327     -790.29407      272.328        3149.9476      1920.3708      0.9969611
    579000  -686.73567      104.15658     -790.89225      275.13681     -1050.8545      1920.3708      0.9969611
    580000  -684.72816      104.70951     -789.43766      276.5974      -617.19302      1920.3708      0.9969611
    581000  -696.39241      101.73917     -798.13159      268.75106     -95.554153      1920.3708      0.9969611
    582000  -687.76116      104.2733      -792.03446      275.44512     -500.98033      1920.3708      0.9969611
    583000  -655.03745      126.50141     -781.53886      334.16222      637.71057      1920.3708      0.9969611
    584000  -636.01788      117.70669     -753.72457      310.93036      1853.2313      1920.3708      0.9969611
    585000  -669.44753      117.14857     -786.5961       309.45604     -1830.0008      1920.3708      0.9969611
    586000  -672.29768      118.55323     -790.85091      313.16655      580.29427      1920.3708      0.9969611
    587000  -663.47678      115.21485     -778.69163      304.348        1466.2764      1920.3708      0.9969611
    588000  -675.28109      122.52611     -797.80721      323.66119     -1769.4686      1920.3708      0.9969611
    589000  -688.54778      103.47741     -792.02519      273.34273     -1897.9087      1920.3708      0.9969611
    590000  -656.35932      121.70081     -778.06014      321.48111      653.53804      1920.3708      0.9969611
    591000  -686.8369       109.75531     -796.59221      289.92623     -684.13196      1920.3708      0.9969611
    592000  -658.36964      109.39573     -767.76537      288.97638      894.29669      1920.3708      0.9969611
    593000  -655.89237      127.85549     -783.74787      337.73912     -1741.4737      1920.3708      0.9969611
    594000  -686.99985      106.53767     -793.53752      281.42662      1433.4894      1920.3708      0.9969611
    595000  -661.3775       119.46055     -780.83805      315.5633       2793.7602      1920.3708      0.9969611
    596000  -668.56663      110.39557     -778.9622       291.61754      1731.9886      1920.3708      0.9969611
    597000  -661.3063       96.708313     -758.01461      255.46169     -377.77302      1920.3708      0.9969611
    598000  -688.81534      114.42117     -803.23651      302.25144     -863.46304      1920.3708      0.9969611
    599000  -661.41902      110.61566     -772.03468      292.19892     -1523.1768      1920.3708      0.9969611
    600000  -686.97917      108.85754     -795.83671      287.55471     -2335.179       1920.3708      0.9969611
    601000  -702.97365      113.52079     -816.49444      299.87301      277.41741      1920.3708      0.9969611
    602000  -680.81483      118.50318     -799.31802      313.03435      74.154653      1920.3708      0.9969611
    603000  -664.81214      110.50775     -775.31989      291.91385      1092.2548      1920.3708      0.9969611
    604000  -673.65514      115.19312     -788.84825      304.29058      1206.685       1920.3708      0.9969611
    605000  -664.68077      111.56319     -776.24395      294.70187     -336.55724      1920.3708      0.9969611
    606000  -658.07252      115.01213     -773.08465      303.81249      5254.1493      1920.3708      0.9969611
    607000  -687.19138      99.955734     -787.14711      264.03998     -1302.1275      1920.3708      0.9969611
    608000  -665.68591      112.24904     -777.93495      296.5136       376.22621      1920.3708      0.9969611
    609000  -658.49495      125.53795     -784.03291      331.61718      2830.8243      1920.3708      0.9969611
    610000  -671.97266      111.5814      -783.55406      294.74998     -1347.8146      1920.3708      0.9969611
    611000  -687.71635      116.16867     -803.88502      306.86757      1559.4372      1920.3708      0.9969611
    612000  -679.34973      105.70942     -785.05915      279.23874     -347.22048      1920.3708      0.9969611
    613000  -654.40499      129.79066     -784.19564      342.85099      1945.6372      1920.3708      0.9969611
    614000  -681.52244      103.39613     -784.91857      273.12803     -480.33545      1920.3708      0.9969611
    615000  -704.71902      97.562611     -802.28163      257.71838     -948.88843      1920.3708      0.9969611
    616000  -664.4427       132.17245     -796.61516      349.14267     -1375.164       1920.3708      0.9969611
    617000  -696.02094      104.99234     -801.01328      277.34453      611.66739      1920.3708      0.9969611
    618000  -676.83971      101.85119     -778.6909       269.04696      1280.7491      1920.3708      0.9969611
    619000  -670.12827      112.77577     -782.90404      297.90499      1234.3754      1920.3708      0.9969611
    620000  -650.76621      134.4275      -785.19371      355.09953     -2546.5128      1920.3708      0.9969611
    621000  -671.41884      117.36946     -788.7883       310.03955      1329.6041      1920.3708      0.9969611
    622000  -687.09773      101.23118     -788.32891      267.40916     -1025.1894      1920.3708      0.9969611
    623000  -672.56404      106.19878     -778.76281      280.53141     -1851.4105      1920.3708      0.9969611
    624000  -690.80723      111.71348     -802.52071      295.09888     -893.89832      1920.3708      0.9969611
    625000  -653.19219      124.56198     -777.75417      329.03907      167.3649       1920.3708      0.9969611
    626000  -664.33791      100.50724     -764.84515      265.49682     -2205.7599      1920.3708      0.9969611
    627000  -673.91295      123.1071      -797.02005      325.19591     -1123.9102      1920.3708      0.9969611
    628000  -660.76948      121.26516     -782.03464      320.3303      -3650.8225      1920.3708      0.9969611
    629000  -684.86356      112.10446     -796.96802      296.13167     -3267.2714      1920.3708      0.9969611
    630000  -695.71938      101.30697     -797.02636      267.60936     -190.63302      1920.3708      0.9969611
    631000  -690.00452      107.16387     -797.1684       283.08077      443.10813      1920.3708      0.9969611
    632000  -682.5788       101.66652     -784.24532      268.55915     -1140.7747      1920.3708      0.9969611
    633000  -678.47342      130.19655     -808.66997      343.92319      1023.7807      1920.3708      0.9969611
    634000  -656.22123      122.2905      -778.51172      323.0388       1078.4677      1920.3708      0.9969611
    635000  -673.23377      110.25625     -783.49001      291.2495       1046.537       1920.3708      0.9969611
    636000  -670.02414      118.08312     -788.10726      311.92472      390.65773      1920.3708      0.9969611
    637000  -655.0342       121.58361     -776.61781      321.17151     -613.89548      1920.3708      0.9969611
    638000  -690.04578      118.40127     -808.44705      312.76513      2091.9973      1920.3708      0.9969611
    639000  -669.01515      108.82255     -777.8377       287.46229      1356.0469      1920.3708      0.9969611
    640000  -674.253        109.18783     -783.44084      288.42721     -569.30576      1920.3708      0.9969611
    641000  -667.47924      117.86836     -785.34761      311.35743     -1762.5961      1920.3708      0.9969611
    642000  -672.63293      113.58948     -786.22242      300.05447     -80.200099      1920.3708      0.9969611
    643000  -675.9325       103.89191     -779.82441      274.43766     -1088.0047      1920.3708      0.9969611
    644000  -675.72679      100.50841     -776.23519      265.4999      -1685.5676      1920.3708      0.9969611
    645000  -683.76965      105.2624      -789.03206      278.05792     -1351.7189      1920.3708      0.9969611
    646000  -655.33154      126.28592     -781.61746      333.593       -1083.5558      1920.3708      0.9969611
    647000  -686.53861      109.02009     -795.5587       287.98409     -1688.4457      1920.3708      0.9969611
    648000  -647.04346      122.00965     -769.05311      322.29692     -840.40741      1920.3708      0.9969611
    649000  -668.1219       125.47234     -793.59423      331.44385     -2686.3633      1920.3708      0.9969611
    650000  -678.88888      106.29145     -785.18032      280.7762      -1529.6546      1920.3708      0.9969611
    651000  -678.11789      104.13131     -782.2492       275.07005     -1376.3122      1920.3708      0.9969611
    652000  -689.66874      105.69053     -795.35927      279.18885     -825.02481      1920.3708      0.9969611
    653000  -718.39881      90.963784     -809.36259      240.28712     -2861.3292      1920.3708      0.9969611
    654000  -718.03911      94.827632     -812.86674      250.49374     -1051.6541      1920.3708      0.9969611
    655000  -685.00633      112.47123     -797.47755      297.10053     -820.87459      1920.3708      0.9969611
[...]
   2841000  -682.27209      113.6779      -795.95         300.28804     -1215.0732      1920.3708      0.9969611
   2842000  -678.38169      114.61033     -792.99202      302.75112      2297.9702      1920.3708      0.9969611
   2843000  -666.58903      114.46617     -781.0552       302.37029      1245.6525      1920.3708      0.9969611
   2844000  -669.99051      105.13699     -775.1275       277.72664     -1061.3294      1920.3708      0.9969611
   2845000  -686.12885      112.36714     -798.49599      296.82556     -1113.4824      1920.3708      0.9969611
   2846000  -647.05364      119.19201     -766.24565      314.85392     -4572.2029      1920.3708      0.9969611
   2847000  -669.14562      108.78        -777.92561      287.34988      1529.5259      1920.3708      0.9969611
   2848000  -662.09353      103.89003     -765.98355      274.43269     -647.78655      1920.3708      0.9969611
   2849000  -677.91685      108.45674     -786.37359      286.49597     -1396.8624      1920.3708      0.9969611
   2850000  -650.59067      126.72826     -777.31893      334.76144     -1285.9198      1920.3708      0.9969611
   2851000  -659.07887      103.49429     -762.57316      273.38731     -1942.3998      1920.3708      0.9969611
   2852000  -698.58559      102.66949     -801.25508      271.20855     -1530.9383      1920.3708      0.9969611
   2853000  -677.77846      113.96029     -791.73875      301.03397      57.850749      1920.3708      0.9969611
   2854000  -666.42953      120.07074     -786.50027      317.17515      973.46676      1920.3708      0.9969611
   2855000  -695.71819      109.05305     -804.77124      288.07118      2349.7011      1920.3708      0.9969611
   2856000  -673.53768      106.85098     -780.38866      282.25426     -340.50723      1920.3708      0.9969611
   2857000  -682.62368      112.10443     -794.72811      296.1316      -1790.388       1920.3708      0.9969611
   2858000  -676.16877      113.60961     -789.77838      300.10765     -2423.7616      1920.3708      0.9969611
   2859000  -638.96414      118.71116     -757.6753       313.58374     -130.7656       1920.3708      0.9969611
   2860000  -673.04024      107.51422     -780.55446      284.00624      2010.5609      1920.3708      0.9969611
   2861000  -684.34037      104.12288     -788.46326      275.04779     -699.03194      1920.3708      0.9969611
   2862000  -670.59394      125.23306     -795.82699      330.81177     -1219.0132      1920.3708      0.9969611
   2863000  -664.81932      121.60511     -786.42443      321.22831     -2331.103       1920.3708      0.9969611
   2864000  -682.14345      116.49326     -798.63671      307.72499     -1575.3947      1920.3708      0.9969611
   2865000  -642.41021      105.63615     -748.04637      279.04519     -826.44223      1920.3708      0.9969611
   2866000  -689.91995      100.65298     -790.57293      265.8818      -2898.0889      1920.3708      0.9969611
   2867000  -685.32524      116.43655     -801.76179      307.57521     -2008.0853      1920.3708      0.9969611
   2868000  -679.19144      112.11204     -791.30348      296.15169     -785.22157      1920.3708      0.9969611
   2869000  -656.23805      113.39033     -769.62838      299.5284      -1954.8513      1920.3708      0.9969611
   2870000  -686.59857      110.89579     -797.49436      292.9389      -919.33536      1920.3708      0.9969611
   2871000  -665.78063      110.79708     -776.57771      292.67815     -1375.8258      1920.3708      0.9969611
   2872000  -677.62748      100.67782     -778.3053       265.94743     -111.12832      1920.3708      0.9969611
   2873000  -682.49736      108.6753      -791.17266      287.07333     -1001.7005      1920.3708      0.9969611
   2874000  -675.61657      104.58732     -780.20389      276.27463     -60.720953      1920.3708      0.9969611
   2875000  -691.75426      107.26858     -799.02283      283.35736     -1380.4167      1920.3708      0.9969611
   2876000  -662.76907      126.98997     -789.75903      335.45277     -1545.0081      1920.3708      0.9969611
   2877000  -708.35842      109.52039     -817.87881      289.30569     -667.49268      1920.3708      0.9969611
   2878000  -694.26549      102.23193     -796.49742      270.0527       1694.2874      1920.3708      0.9969611
   2879000  -702.85665      113.50773     -816.36438      299.83851     -518.28901      1920.3708      0.9969611
   2880000  -668.49741      114.37022     -782.86763      302.11683     -1225.0585      1920.3708      0.9969611
   2881000  -688.54288      120.28431     -808.82719      317.73931      1029.7406      1920.3708      0.9969611
   2882000  -698.37467      110.70552     -809.08019      292.43627     -2008.6956      1920.3708      0.9969611
   2883000  -679.879        112.97462     -792.85363      298.43027     -1314.4534      1920.3708      0.9969611
   2884000  -692.89443      103.67677     -796.5712       273.86934      208.22934      1920.3708      0.9969611
   2885000  -674.8772       116.07638     -790.95358      306.62378     -2446.9986      1920.3708      0.9969611
   2886000  -671.53393      105.83176     -777.36569      279.56191     -619.43676      1920.3708      0.9969611
   2887000  -700.04232      101.98071     -802.02303      269.3891       162.28953      1920.3708      0.9969611
   2888000  -690.6588       110.88277     -801.54157      292.9045       987.46633      1920.3708      0.9969611
   2889000  -666.38592      115.86801     -782.25393      306.07336     -1949.4394      1920.3708      0.9969611
   2890000  -682.76377      108.64649     -791.41026      286.99721     -215.89796      1920.3708      0.9969611
   2891000  -672.54286      112.50757     -785.05043      297.19653     -2512.341       1920.3708      0.9969611
   2892000  -671.35545      122.01552     -793.37097      322.31243     -1062.4243      1920.3708      0.9969611
   2893000  -688.40262      103.99328     -792.3959       274.70543     -3977.7008      1920.3708      0.9969611
   2894000  -686.42775      112.82131     -799.24906      298.02528     -3173.3543      1920.3708      0.9969611
   2895000  -684.32855      113.77803     -798.10658      300.55254     -1340.0511      1920.3708      0.9969611
   2896000  -669.57875      109.43051     -779.00926      289.06825     -1539.2106      1920.3708      0.9969611
   2897000  -676.48097      102.21253     -778.6935       270.00146      957.05523      1920.3708      0.9969611
   2898000  -692.58167      121.47536     -814.05704      320.88557     -2407.701       1920.3708      0.9969611
   2899000  -680.35986      109.09193     -789.45179      288.17388     -3714.0065      1920.3708      0.9969611
   2900000  -676.59599      115.45902     -792.05501      304.99297     -686.63514      1920.3708      0.9969611
   2901000  -707.69672      97.489829     -805.18655      257.52612     -4862.7371      1920.3708      0.9969611
   2902000  -673.07451      117.44994     -790.52445      310.25214     -122.28919      1920.3708      0.9969611
   2903000  -682.52045      107.50789     -790.02835      283.98953      1413.2568      1920.3708      0.9969611
   2904000  -677.73624      112.8689      -790.60515      298.151       -1854.8523      1920.3708      0.9969611
   2905000  -673.36509      114.98663     -788.35172      303.74513     -326.77584      1920.3708      0.9969611
   2906000  -672.79086      111.72671     -784.51757      295.13382     -1379.0107      1920.3708      0.9969611
   2907000  -676.83116      101.4472      -778.27836      267.9798       666.96095      1920.3708      0.9969611
   2908000  -653.74551      111.41966     -765.16517      294.32272      422.71439      1920.3708      0.9969611
   2909000  -678.45588      106.54968     -785.00556      281.45835     -991.16765      1920.3708      0.9969611
   2910000  -672.99008      105.11137     -778.10145      277.65896      239.58704      1920.3708      0.9969611
   2911000  -674.87222      116.64215     -791.51437      308.1183      -1124.5144      1920.3708      0.9969611
   2912000  -649.13424      119.13038     -768.26463      314.69114     -1856.2566      1920.3708      0.9969611
   2913000  -674.58005      105.9206      -780.50065      279.79659     -1780.2759      1920.3708      0.9969611
   2914000  -659.55119      102.95292     -762.50411      271.95725      1094.2117      1920.3708      0.9969611
   2915000  -674.43933      108.03656     -782.4759       285.38604     -80.321578      1920.3708      0.9969611
   2916000  -690.4348       101.74133     -792.17613      268.75676     -360.205        1920.3708      0.9969611
   2917000  -666.63371      112.32476     -778.95847      296.71361     -3196.1732      1920.3708      0.9969611
   2918000  -659.27806      109.89111     -769.16917      290.28496     -2725.2454      1920.3708      0.9969611
   2919000  -695.68881      96.864131     -792.55294      255.8733      -132.09138      1920.3708      0.9969611
   2920000  -680.2586       122.22763     -802.48623      322.87273     -1540.3537      1920.3708      0.9969611
   2921000  -686.02428      114.23248     -800.25676      301.75299     -2430.0206      1920.3708      0.9969611
   2922000  -662.07889      129.17272     -791.25162      341.21868     -2076.5534      1920.3708      0.9969611
   2923000  -664.9496       120.3015      -785.2511       317.78471     -116.18064      1920.3708      0.9969611
   2924000  -648.74228      119.10029     -767.84256      314.61164      460.50873      1920.3708      0.9969611
   2925000  -664.55297      114.34002     -778.89299      302.03706     -567.71653      1920.3708      0.9969611
   2926000  -676.12058      114.18622     -790.3068       301.63078      76.227137      1920.3708      0.9969611
   2927000  -681.22347      113.50934     -794.73282      299.84277     -835.93852      1920.3708      0.9969611
   2928000  -689.06719      111.15928     -800.22647      293.63493      1106.7969      1920.3708      0.9969611
   2929000  -675.38741      115.53847     -790.92588      305.20285      2417.9507      1920.3708      0.9969611
   2930000  -662.73694      114.68454     -777.42148      302.94714      3667.0152      1920.3708      0.9969611
   2931000  -672.82069      102.55307     -775.37376      270.90102     -2521.8206      1920.3708      0.9969611
   2932000  -659.87403      110.05833     -769.93236      290.72669      3189.5217      1920.3708      0.9969611
   2933000  -673.74576      110.45334     -784.1991       291.77012     -1813.5892      1920.3708      0.9969611
   2934000  -659.84539      109.40235     -769.24774      288.99386     -1544.9273      1920.3708      0.9969611
   2935000  -651.14223      113.40728     -764.54951      299.57316     -2976.4648      1920.3708      0.9969611
   2936000  -665.52944      116.96065     -782.49009      308.95963     -2710.6544      1920.3708      0.9969611
   2937000  -669.25262      106.41806     -775.67069      281.11067     -1938.9475      1920.3708      0.9969611
   2938000  -679.01862      108.27486     -787.29348      286.01553     -2677.2819      1920.3708      0.9969611
   2939000  -646.67679      118.19778     -764.87458      312.22761     -1997.6395      1920.3708      0.9969611
   2940000  -672.66341      109.07151     -781.73492      288.11994     -1621.034       1920.3708      0.9969611
   2941000  -674.63438      115.32897     -789.96336      304.64946     -2883.2559      1920.3708      0.9969611
   2942000  -665.0602       129.98619     -795.0464       343.36751      1257.8659      1920.3708      0.9969611
   2943000  -663.4909       120.12742     -783.61833      317.32489     -3987.6022      1920.3708      0.9969611
   2944000  -658.37207      121.47035     -779.84242      320.87233     -129.78287      1920.3708      0.9969611
   2945000  -686.83316      112.56262     -799.39578      297.34194     -547.21187      1920.3708      0.9969611
   2946000  -635.35504      124.6812      -760.03623      329.354       -1494.5935      1920.3708      0.9969611
   2947000  -675.87265      110.43514     -786.30779      291.72205      892.19923      1920.3708      0.9969611
   2948000  -668.64235      113.97289     -782.61525      301.06728     -1682.8447      1920.3708      0.9969611
   2949000  -693.50167      100.11426     -793.61593      264.45873     -1309.3341      1920.3708      0.9969611
   2950000  -670.29835      122.33543     -792.63378      323.15749      387.11043      1920.3708      0.9969611
   2951000  -697.37121      104.99836     -802.36957      277.36043     -2724.5772      1920.3708      0.9969611
   2952000  -679.15417      113.77465     -792.92882      300.5436      -3364.6957      1920.3708      0.9969611
   2953000  -666.04741      108.36569     -774.4131       286.25546     -1224.4143      1920.3708      0.9969611
   2954000  -683.32399      106.01925     -789.34323      280.05717     -2560.8873      1920.3708      0.9969611
   2955000  -671.88416      123.01        -794.89416      324.93941     -2457.2546      1920.3708      0.9969611
   2956000  -659.86555      117.30968     -777.17523      309.88162     -1871.4439      1920.3708      0.9969611
   2957000  -671.61647      121.67943     -793.29589      321.42461     -905.23139      1920.3708      0.9969611
   2958000  -667.11462      119.17182     -786.28644      314.80059     -2021.6788      1920.3708      0.9969611
   2959000  -667.34476      99.1217       -766.46646      261.83682     -1286.6166      1920.3708      0.9969611
   2960000  -683.62683      109.03386     -792.66069      288.02048     -2532.7101      1920.3708      0.9969611
   2961000  -700.62387      106.52362     -807.14749      281.38951     -4093.4518      1920.3708      0.9969611
   2962000  -683.81405      105.90217     -789.71622      279.7479       1136.7218      1920.3708      0.9969611
   2963000  -672.93191      99.394326     -772.32624      262.55698     -869.05663      1920.3708      0.9969611
   2964000  -661.28947      117.01732     -778.30679      309.10935      1173.278       1920.3708      0.9969611
   2965000  -674.57555      116.5669      -791.14245      307.91952     -3231.9081      1920.3708      0.9969611
   2966000  -676.48452      120.49565     -796.98017      318.29759     -204.95007      1920.3708      0.9969611
   2967000  -676.24903      99.0595       -775.30853      261.67251     -1798.7895      1920.3708      0.9969611
   2968000  -681.77421      102.06022     -783.83443      269.59912     -808.48803      1920.3708      0.9969611
   2969000  -680.99749      103.51924     -784.51674      273.45324     -855.42515      1920.3708      0.9969611
   2970000  -663.59551      116.68651     -780.28202      308.23549      1660.312       1920.3708      0.9969611
   2971000  -659.72725      102.606       -762.33325      271.04084     -2108.3549      1920.3708      0.9969611
   2972000  -661.35119      129.24519     -790.59638      341.41009     -1026.0483      1920.3708      0.9969611
   2973000  -675.2965       109.39227     -784.68877      288.96723     -393.93882      1920.3708      0.9969611
   2974000  -684.37527      105.87461     -790.24988      279.67509     -624.98912      1920.3708      0.9969611
   2975000  -714.04826      100.72755     -814.77582      266.0788      -1468.3848      1920.3708      0.9969611
   2976000  -674.45388      123.04473     -797.49861      325.03116      508.84843      1920.3708      0.9969611
   2977000  -684.06182      115.39281     -799.45463      304.81809      1387.9086      1920.3708      0.9969611
   2978000  -690.2453       114.98199     -805.22729      303.73287     -1077.0919      1920.3708      0.9969611
   2979000  -662.44985      109.58382     -772.03368      289.47324      928.86585      1920.3708      0.9969611
   2980000  -674.79448      111.53981     -786.33429      294.64011     -2480.3368      1920.3708      0.9969611
   2981000  -658.36143      118.95678     -777.31821      314.23256     -1188.556       1920.3708      0.9969611
   2982000  -674.91599      115.15141     -790.0674       304.1804      -1455.9567      1920.3708      0.9969611
   2983000  -698.82842      103.11063     -801.93905      272.37386     -593.55067      1920.3708      0.9969611
   2984000  -680.28178      107.4188      -787.70059      283.75419     -2359.7711      1920.3708      0.9969611
   2985000  -684.58147      119.05637     -803.63784      314.49563     -836.63369      1920.3708      0.9969611
   2986000  -676.06299      107.59828     -783.66128      284.2283       318.77379      1920.3708      0.9969611
   2987000  -684.77861      114.87188     -799.65049      303.44202     -465.1167       1920.3708      0.9969611
   2988000  -694.13361      103.5946      -797.72821      273.6523      -2003.9384      1920.3708      0.9969611
   2989000  -686.72946      108.1521      -794.88157      285.69126     -1336.4345      1920.3708      0.9969611
   2990000  -674.88968      111.18478     -786.07446      293.70229      1685.4094      1920.3708      0.9969611
   2991000  -662.62953      111.0726      -773.70213      293.40594     -1164.3549      1920.3708      0.9969611
   2992000  -682.18062      119.50645     -801.68708      315.68456      49.776101      1920.3708      0.9969611
   2993000  -659.88641      128.99122     -788.87763      340.73923      2250.858       1920.3708      0.9969611
   2994000  -664.82962      112.02639     -776.85602      295.92546     -4175.8233      1920.3708      0.9969611
   2995000  -677.9016       113.34902     -791.25062      299.41927     -3521.6506      1920.3708      0.9969611
   2996000  -677.28822      101.81562     -779.10384      268.953       -1308.2555      1920.3708      0.9969611
   2997000  -658.70175      118.92656     -777.62831      314.15272     -1042.754       1920.3708      0.9969611
   2998000  -642.15043      105.27236     -747.4228       278.08422      1082.8392      1920.3708      0.9969611
   2999000  -666.56003      109.21996     -775.78         288.51209      1022.6674      1920.3708      0.9969611
   3000000  -717.16725      109.12318     -826.29044      288.25643     -1587.5871      1920.3708      0.9969611
Loop time of 1781.22 on 1 procs for 2000000 steps with 192 atoms

Performance: 97.012 ns/day, 0.247 hours/ns, 1122.825 timesteps/s
99.7% CPU use with 1 MPI tasks x 1 OpenMP threads

MPI task timing breakdown:
Section |  min time  |  avg time  |  max time  |%varavg| %total
---------------------------------------------------------------
Pair    | 1426.4     | 1426.4     | 1426.4     |   0.0 | 80.08
Bond    | 0.11768    | 0.11768    | 0.11768    |   0.0 |  0.01
Kspace  | 233.42     | 233.42     | 233.42     |   0.0 | 13.10
Neigh   | 68.094     | 68.094     | 68.094     |   0.0 |  3.82
Comm    | 26.83      | 26.83      | 26.83      |   0.0 |  1.51
Output  | 0.4374     | 0.4374     | 0.4374     |   0.0 |  0.02
Modify  | 21.399     | 21.399     | 21.399     |   0.0 |  1.20
Other   |            | 4.538      |            |       |  0.25

Nlocal:            192 ave         192 max         192 min
Histogram: 1 0 0 0 0 0 0 0 0 0
Nghost:           4713 ave        4713 max        4713 min
Histogram: 1 0 0 0 0 0 0 0 0 0
Neighs:          69326 ave       69326 max       69326 min
Histogram: 1 0 0 0 0 0 0 0 0 0

Total # of neighbors = 69326
Ave neighs/atom = 361.07292
Ave special neighs/atom = 2
Neighbor list builds = 53264
Dangerous builds = 0

# write data file
write_data data.after_prod.lmp
System init for write_data ...
PPPM initialization ...
  using 12-bit tables for long-range coulomb (src/kspace.cpp:342)
  G vector (1/distance) = 0.31260513
  grid = 12 12 12
  stencil order = 5
  estimated absolute RMS force accuracy = 0.0021455329
  estimated relative force accuracy = 6.4612085e-06
  using double precision FFTW3
  3d grid and FFT values/proc = 6859 1728
Generated 1 of 1 mixed pair_coeff terms from geometric mixing rule

# clean up
undump dPROD
unfix fTHERMO
unfix fMOM
unfix fSHAKE
Total wall time: 0:44:29
