LAMMPS (23 Jun 2022 - Update 4)
  using 1 OpenMP thread(s) per MPI task
# created by fftool

# System settings
units real
boundary p p p  # Periodic boundary conditions

# definition of atoms, bonds, angles
atom_style full
bond_style harmonic
angle_style harmonic

# definition of pair potentials
special_bonds lj/coul 0.0 0.0 0.5
pair_style lj/cut/coul/long 10.0 10.0
pair_modify mix geometric tail yes
kspace_style pppm 1.0e-5

# read data file
read_data data.lmp
Reading data file ...
  orthogonal box = (0 0 0) to (9.865483 9.865483 9.865483)
  1 by 1 by 1 MPI processor grid
  reading atoms ...
  96 atoms
  scanning bonds ...
  1 = max bonds/atom
  scanning angles ...
  1 = max angles/atom
  reading bonds ...
  64 bonds
  reading angles ...
  32 angles
Finding 1-2 1-3 1-4 neighbors ...
  special bond factors lj:    0        0        0.5
  special bond factors coul:  0        0        0.5
     2 = max # of 1-2 neighbors
     1 = max # of 1-3 neighbors
     1 = max # of 1-4 neighbors
     2 = max # of special neighbors
  special bonds CPU = 0.000 seconds
  read_data CPU = 0.004 seconds

# definition of LJ parameters
pair_coeff    1    1     0.000000     0.000000  # Hw Hw
pair_coeff    2    2     0.163785     3.164813  # Ow-Ow

############################################

# remove energy hotspots
minimize 1.0e-4 1.0e-6 100 1000
WARNING: Using 'neigh_modify every 1 delay 0 check yes' setting during minimization (src/min.cpp:187)
PPPM initialization ...
  using 12-bit tables for long-range coulomb (src/kspace.cpp:342)
  G vector (1/distance) = 0.30847861
  grid = 9 9 9
  stencil order = 5
  estimated absolute RMS force accuracy = 0.0027675926
  estimated relative force accuracy = 8.334523e-06
  using double precision FFTW3
  3d grid and FFT values/proc = 4096 729
Generated 1 of 1 mixed pair_coeff terms from geometric mixing rule
Neighbor list info ...
  update every 1 steps, delay 0 steps, check yes
  max neighbors/atom: 2000, page size: 100000
  master list distance cutoff = 12
  ghost atom cutoff = 12
  binsize = 6, bins = 2 2 2
  1 neighbor lists, perpetual/occasional/extra = 1 0 0
  (1) pair lj/cut/coul/long, perpetual
      attributes: half, newton on
      pair build: half/bin/newton
      stencil: half/bin/3d
      bin: standard
Per MPI rank memory allocation (min/avg/max) = 8.317 | 8.317 | 8.317 Mbytes
   Step          Temp          E_pair         E_mol          TotEng         Press
         0   0              829.0832       6.7900184e-09  829.0832       266910.94
       100   0             -469.56139      31.68663      -437.87476     -8766.1806
Loop time of 0.111255 on 1 procs for 100 steps with 96 atoms

99.6% CPU use with 1 MPI tasks x 1 OpenMP threads

Minimization stats:
  Stopping criterion = max iterations
  Energy initial, next-to-last, final =
      829.083196716802  -436.569873816159  -437.874756578882
  Force two-norm initial, final = 4636.1704 45.172817
  Force max component initial, final = 2218.098 16.363137
  Final line search alpha, max atom move = 0.0059965744 0.098122766
  Iterations, force evaluations = 100 183

MPI task timing breakdown:
Section |  min time  |  avg time  |  max time  |%varavg| %total
---------------------------------------------------------------
Pair    | 0.094962   | 0.094962   | 0.094962   |   0.0 | 85.35
Bond    | 0.0003614  | 0.0003614  | 0.0003614  |   0.0 |  0.32
Kspace  | 0.01111    | 0.01111    | 0.01111    |   0.0 |  9.99
Neigh   | 0.0021312  | 0.0021312  | 0.0021312  |   0.0 |  1.92
Comm    | 0.0021113  | 0.0021113  | 0.0021113  |   0.0 |  1.90
Output  | 8.234e-06  | 8.234e-06  | 8.234e-06  |   0.0 |  0.01
Modify  | 0          | 0          | 0          |   0.0 |  0.00
Other   |            | 0.0005713  |            |       |  0.51

Nlocal:             96 ave          96 max          96 min
Histogram: 1 0 0 0 0 0 0 0 0 0
Nghost:           3866 ave        3866 max        3866 min
Histogram: 1 0 0 0 0 0 0 0 0 0
Neighs:          34716 ave       34716 max       34716 min
Histogram: 1 0 0 0 0 0 0 0 0 0

Total # of neighbors = 34716
Ave neighs/atom = 361.625
Ave special neighs/atom = 2
Neighbor list builds = 3
Dangerous builds = 0
reset_timestep 0

# constrain water bonds and angles
fix fSHAKE all shake 0.0001 20 0 b 1 a 1
       0 = # of size 2 clusters
       0 = # of size 3 clusters
       0 = # of size 4 clusters
      32 = # of frozen angles
  find clusters CPU = 0.000 seconds

# remove Center of Mass movement every 100 steps
fix fMOM all momentum 100 linear 1 1 1

# define the neighbor list
neighbor 2.0 bin

# IMPORTANT: timestep and temperature and pressure
timestep 1.0
variable vTK equal 298.15
variable vPBAR equal 1.0

# randomize velocities
velocity all create ${vTK} 94711
velocity all create 298.15 94711

# thermostat (solving the ODE)
fix fTHERMO all nvt temp ${vTK} ${vTK} 100
fix fTHERMO all nvt temp 298.15 ${vTK} 100
fix fTHERMO all nvt temp 298.15 298.15 100

# print settings
thermo 1000
thermo_style custom step etotal ke pe temp press vol density
# trajectory output
dump dEQUI all custom 1000 equi.lammpstrj id element xu yu zu
dump_modify dEQUI element H O sort id

# equilibration
# 1 ns
run 1000000
PPPM initialization ...
  using 12-bit tables for long-range coulomb (src/kspace.cpp:342)
  G vector (1/distance) = 0.30847861
  grid = 9 9 9
  stencil order = 5
  estimated absolute RMS force accuracy = 0.0027675926
  estimated relative force accuracy = 8.334523e-06
  using double precision FFTW3
  3d grid and FFT values/proc = 4096 729
Generated 1 of 1 mixed pair_coeff terms from geometric mixing rule
Per MPI rank memory allocation (min/avg/max) = 9.326 | 9.326 | 9.326 Mbytes
   Step         TotEng         KinEng         PotEng          Temp          Press          Volume        Density
         0  -413.57149      55.989897     -469.56139      298.15         36.45226       960.18531      0.99696118
      1000  -323.65684      51.625673     -375.28251      274.91021      923.99836      960.18531      0.99696118
      2000  -332.96162      52.420411     -385.38203      279.14225     -4354.2352      960.18531      0.99696118
      3000  -333.00238      63.628655     -396.63104      338.82691      3834.6092      960.18531      0.99696118
      4000  -353.10808      42.443785     -395.55187      226.01604      2857.9939      960.18531      0.99696118
      5000  -324.9437       69.404177     -394.34788      369.58196     -998.96141      960.18531      0.99696118
      6000  -320.17189      57.060258     -377.23215      303.84975      647.33286      960.18531      0.99696118
      7000  -344.65884      53.415219     -398.07406      284.43967     -1365.1618      960.18531      0.99696118
      8000  -323.56163      54.943303     -378.50494      292.57682     -1583.9334      960.18531      0.99696118
      9000  -325.7839       57.224456     -383.00836      304.72411      1754.231       960.18531      0.99696118
     10000  -326.22488      58.752722     -384.97761      312.86223      1124.2479      960.18531      0.99696118
     11000  -328.02581      47.625646     -375.65145      253.6098       4485.9592      960.18531      0.99696118
     12000  -324.63011      57.459357     -382.08947      305.97498     -1855.6441      960.18531      0.99696118
     13000  -333.11073      50.459407     -383.57014      268.69977      848.52135      960.18531      0.99696118
     14000  -319.82312      48.200092     -368.02321      256.66876     -2960.8221      960.18531      0.99696118
     15000  -315.73126      59.616237     -375.3475       317.46051      2076.5912      960.18531      0.99696118
     16000  -329.39292      52.84857      -382.24149      281.42222     -2694.0602      960.18531      0.99696118
     17000  -323.01522      58.845174     -381.8604       313.35455      2491.2396      960.18531      0.99696118
     18000  -323.43833      52.21722      -375.65555      278.06024     -2463.0344      960.18531      0.99696118
     19000  -312.9843       67.853933     -380.83823      361.3268       38.005254      960.18531      0.99696118
     20000  -329.84884      54.484341     -384.33319      290.13282     -2778.1231      960.18531      0.99696118
     21000  -319.19954      70.430207     -389.62975      375.04563      224.95016      960.18531      0.99696118
     22000  -350.15633      49.548901     -399.70523      263.85126     -726.03519      960.18531      0.99696118
     23000  -318.17741      58.231108     -376.40852      310.0846      -4349.3858      960.18531      0.99696118
     24000  -308.73807      65.652838     -374.39091      349.60582     -1352.263       960.18531      0.99696118
     25000  -316.05898      60.955123     -377.0141       324.59017     -1969.8417      960.18531      0.99696118
     26000  -327.96481      46.319492     -374.2843       246.65444      1429.2281      960.18531      0.99696118
     27000  -316.15014      56.805772     -372.95591      302.49459     -3856.9876      960.18531      0.99696118
     28000  -314.53384      60.192959     -374.7268       320.53159      111.66606      960.18531      0.99696118
     29000  -326.97415      52.304399     -379.27855      278.52448     -5287.2832      960.18531      0.99696118
     30000  -320.40358      61.220456     -381.62404      326.00308      566.18223      960.18531      0.99696118
     31000  -318.20019      63.322109     -381.5223       337.19453      488.41398      960.18531      0.99696118
     32000  -329.73912      58.398236     -388.13736      310.97457     -1907.3736      960.18531      0.99696118
     33000  -318.36594      60.980411     -379.34635      324.72483      448.56361      960.18531      0.99696118
     34000  -312.92531      64.567998     -377.49331      343.82898      3420.1231      960.18531      0.99696118
     35000  -323.92151      54.054903     -377.97642      287.84603     -2429.6373      960.18531      0.99696118
     36000  -308.67051      57.458324     -366.12884      305.96947     -1947.8695      960.18531      0.99696118
     37000  -334.6532       52.627982     -387.28119      280.24758     -1100.4565      960.18531      0.99696118
     38000  -342.92018      55.658631     -398.57881      296.38599     -623.97229      960.18531      0.99696118
     39000  -325.25863      51.841112     -377.09974      276.05744     -4466.168       960.18531      0.99696118
     40000  -337.96836      55.560281     -393.52864      295.86227     -4241.0725      960.18531      0.99696118
     41000  -317.90333      61.050645     -378.95398      325.09883     -4863.139       960.18531      0.99696118
     42000  -318.42354      60.275334     -378.69887      320.97024     -732.21004      960.18531      0.99696118
     43000  -310.04796      64.082085     -374.13004      341.24145      4836.6137      960.18531      0.99696118
     44000  -320.91514      56.183798     -377.09894      299.18254      1819.6207      960.18531      0.99696118
     45000  -318.10223      54.8095       -372.91173      291.86431     -751.32939      960.18531      0.99696118
     46000  -327.33131      61.078996     -388.41031      325.2498       298.90325      960.18531      0.99696118
     47000  -309.4322       59.538575     -368.97078      317.04695      1304.4614      960.18531      0.99696118
     48000  -329.60217      52.478076     -382.08024      279.44931      1568.6473      960.18531      0.99696118
     49000  -345.58924      52.998722     -398.58796      282.22179     -857.65377      960.18531      0.99696118
     50000  -319.1522       59.154473     -378.30667      315.00158     -2746.0227      960.18531      0.99696118
     51000  -334.98895      49.643295     -384.63224      264.35391     -973.13625      960.18531      0.99696118
     52000  -313.78308      59.007637     -372.79072      314.21967     -2433.3633      960.18531      0.99696118
     53000  -339.98349      50.624064     -390.60756      269.57658     -4128.0712      960.18531      0.99696118
     54000  -320.37522      56.177205     -376.55243      299.14743     -647.79719      960.18531      0.99696118
     55000  -317.96444      65.103792     -383.06823      346.68211     -2172.765       960.18531      0.99696118
     56000  -335.36474      46.714066     -382.0788       248.75557     -953.67151      960.18531      0.99696118
     57000  -321.05478      58.976876     -380.03166      314.05587     -1385.1622      960.18531      0.99696118
     58000  -331.35567      55.392922     -386.74859      294.97107     -3264.7459      960.18531      0.99696118
     59000  -339.39131      56.323785     -395.71509      299.92798     -438.80618      960.18531      0.99696118
     60000  -313.73263      63.378163     -377.11079      337.49302      1558.3196      960.18531      0.99696118
     61000  -326.75935      56.359543     -383.1189       300.11839     -3160.7839      960.18531      0.99696118
     62000  -311.06276      50.433989     -361.49675      268.56442     -2609.9714      960.18531      0.99696118
     63000  -335.3515       57.697041     -393.04854      307.24066     -368.81297      960.18531      0.99696118
     64000  -322.62923      51.907483     -374.53671      276.41087      1161.7696      960.18531      0.99696118
     65000  -325.43824      48.492648     -373.93089      258.22664     -335.07836      960.18531      0.99696118
     66000  -331.33633      48.434261     -379.77059      257.91573      5.5715046      960.18531      0.99696118
     67000  -333.05844      55.2786       -388.33704      294.3623      -4350.9804      960.18531      0.99696118
     68000  -306.61037      52.432886     -359.04326      279.20868      3737.9624      960.18531      0.99696118
     69000  -319.66665      64.323029     -383.98968      342.5245      -1654.3646      960.18531      0.99696118
     70000  -302.19487      66.013993     -368.20886      351.529       -498.86942      960.18531      0.99696118
     71000  -335.95677      49.493793     -385.45056      263.55781      549.56901      960.18531      0.99696118
     72000  -321.29944      62.111869     -383.41131      330.74992      6183.1528      960.18531      0.99696118
     73000  -317.07562      54.164515     -371.24013      288.42972      904.53503      960.18531      0.99696118
     74000  -333.68393      57.592804     -391.27673      306.68559      1374.4221      960.18531      0.99696118
     75000  -337.98807      50.35075      -388.33882      268.12116     -3086.9646      960.18531      0.99696118
     76000  -317.37927      59.227907     -376.60717      315.39262     -1464.3615      960.18531      0.99696118
     77000  -323.82477      46.92606      -370.75083      249.88445     -1226.4576      960.18531      0.99696118
     78000  -338.63134      54.642809     -393.27414      290.97667      844.97892      960.18531      0.99696118
     79000  -320.12758      63.558413     -383.686        338.45286      851.2226       960.18531      0.99696118
     80000  -324.95743      58.169741     -383.12717      309.75782     -1706.7634      960.18531      0.99696118
     81000  -318.48834      62.312304     -380.80064      331.81725      4250.9596      960.18531      0.99696118
     82000  -303.64988      69.641543     -373.29143      370.84594      1322.8492      960.18531      0.99696118
     83000  -318.85707      56.844119     -375.70119      302.69879      432.04747      960.18531      0.99696118
     84000  -313.78987      63.738252     -377.52812      339.41052     -55.524148      960.18531      0.99696118
     85000  -304.98373      60.669565     -365.6533       323.06955      1130.1261      960.18531      0.99696118
     86000  -318.81689      56.7301       -375.54699      302.09163      4188.9988      960.18531      0.99696118
     87000  -326.21095      54.750723     -380.96168      291.55132     -3619.6138      960.18531      0.99696118
     88000  -324.56436      50.148057     -374.71242      267.04181      2711.9442      960.18531      0.99696118
     89000  -328.25169      47.299309     -375.551        251.87203     -3108.1019      960.18531      0.99696118
     90000  -301.67208      59.331236     -361.00332      315.94286     -1139.1664      960.18531      0.99696118
     91000  -330.14049      50.865848     -381.00634      270.86409     -1646.4012      960.18531      0.99696118
     92000  -316.47855      63.464003     -379.94256      337.95012      510.62686      960.18531      0.99696118
     93000  -308.90001      61.171197     -370.07121      325.74077      230.55911      960.18531      0.99696118
     94000  -327.56267      46.021238     -373.5839       245.06622     -3757.526       960.18531      0.99696118
     95000  -294.46548      64.050173     -358.51565      341.07152     -1939.8093      960.18531      0.99696118
     96000  -311.56177      58.566619     -370.12839      311.87122     -4533.1336      960.18531      0.99696118
     97000  -304.6901       63.533007     -368.2231       338.31758     -1998.5892      960.18531      0.99696118
     98000  -328.18295      56.700056     -384.88301      301.93165     -2146.2421      960.18531      0.99696118
     99000  -322.09         59.488763     -381.57876      316.7817      -3728.4826      960.18531      0.99696118
    100000  -315.09269      57.553814     -372.6465       306.47797     -797.44647      960.18531      0.99696118
    101000  -310.05279      64.507033     -374.55982      343.50433     -1516.6112      960.18531      0.99696118
    102000  -300.89694      52.322342     -353.21928      278.62002     -2589.6203      960.18531      0.99696118
    103000  -326.01904      54.230292     -380.24933      288.77998      1731.5924      960.18531      0.99696118
    104000  -310.15122      65.039602     -375.19082      346.34029      27.331352      960.18531      0.99696118
    105000  -327.70965      55.329659     -383.03931      294.63419      527.19347      960.18531      0.99696118
    106000  -312.33614      59.276216     -371.61235      315.64987      859.91508      960.18531      0.99696118
    107000  -304.49096      67.872773     -372.36374      361.42713     -4035.5522      960.18531      0.99696118
    108000  -314.77813      56.55858      -371.33671      301.17828     -3160.317       960.18531      0.99696118
    109000  -296.36148      70.904918     -367.2664       377.5735       1424.651       960.18531      0.99696118
    110000  -308.93073      49.899729     -358.83046      265.71944     -753.34292      960.18531      0.99696118
    111000  -337.48601      47.753973     -385.23998      254.29315     -2828.3131      960.18531      0.99696118
    112000  -313.12781      70.464607     -383.59242      375.22882     -698.37481      960.18531      0.99696118
    113000  -323.77216      55.707255     -379.47941      296.64492     -797.43301      960.18531      0.99696118
    114000  -318.63479      63.723625     -382.35841      339.33263     -1466.7718      960.18531      0.99696118
    115000  -319.34323      57.833375     -377.1766       307.96665     -1809.688       960.18531      0.99696118
    116000  -322.73124      41.89821      -364.62945      223.11081     -1339.4777      960.18531      0.99696118
    117000  -301.42635      64.457422     -365.88377      343.24015     -3533.952       960.18531      0.99696118
    118000  -319.71166      58.591756     -378.30341      312.00508     -2525.4572      960.18531      0.99696118
    119000  -304.65781      70.279398     -374.9372       374.24256     -2132.3678      960.18531      0.99696118
    120000  -329.09889      59.097735     -388.19663      314.69945     -1643.3387      960.18531      0.99696118
    121000  -328.02523      47.949277     -375.9745       255.33316     -629.02684      960.18531      0.99696118
    122000  -328.43087      47.440004     -375.87088      252.62124     -107.25691      960.18531      0.99696118
    123000  -317.6334       64.454372     -382.08778      343.22391     -970.06885      960.18531      0.99696118
    124000  -335.44239      58.299019     -393.74141      310.44623     -781.08502      960.18531      0.99696118
    125000  -329.55424      56.638821     -386.19306      301.60557     -731.61847      960.18531      0.99696118
    126000  -329.43299      66.649856     -396.08285      354.91501      1973.0154      960.18531      0.99696118
    127000  -323.82742      55.662712     -379.49014      296.40772     -2018.4504      960.18531      0.99696118
    128000  -323.6817       59.876494     -383.55819      318.84639     -641.58756      960.18531      0.99696118
    129000  -329.06713      50.359884     -379.42702      268.1698       148.02749      960.18531      0.99696118
    130000  -321.2773       46.607517     -367.88481      248.18819     -157.29444      960.18531      0.99696118
    131000  -330.27801      56.171225     -386.44924      299.11559      1039.5967      960.18531      0.99696118
    132000  -317.6675       60.622018     -378.28951      322.81636     -1397.1449      960.18531      0.99696118
    133000  -337.14275      57.943766     -395.08651      308.55449     -1267.8892      960.18531      0.99696118
    134000  -341.366        49.652027     -391.01802      264.40041     -2688.3934      960.18531      0.99696118
    135000  -319.9482       59.007473     -378.95567      314.2188      -2292.5301      960.18531      0.99696118
    136000  -313.83215      58.11592      -371.94807      309.47122     -797.49538      960.18531      0.99696118
    137000  -312.94869      59.245155     -372.19384      315.48447     -80.874154      960.18531      0.99696118
    138000  -332.5869       51.78269      -384.36959      275.74634     -3893.6961      960.18531      0.99696118
    139000  -336.43818      49.798212     -386.23639      265.17886     -591.97413      960.18531      0.99696118
    140000  -319.64484      67.10597      -386.75081      357.34384      335.25535      960.18531      0.99696118
    141000  -299.51309      61.501467     -361.01455      327.49949     -584.30001      960.18531      0.99696118
    142000  -326.05981      59.94852      -386.00833      319.22994      276.42213      960.18531      0.99696118
    143000  -318.67192      52.800382     -371.47231      281.16562      2772.5829      960.18531      0.99696118
    144000  -332.95677      52.748882     -385.70565      280.89138     -1836.1928      960.18531      0.99696118
    145000  -317.87398      57.50079      -375.37477      306.19561     -409.98809      960.18531      0.99696118
    146000  -329.16639      55.811754     -384.97814      297.20138      2045.923       960.18531      0.99696118
    147000  -319.62101      63.229328     -382.85034      336.70047      3905.2758      960.18531      0.99696118
    148000  -326.13013      55.875309     -382.00543      297.53981      1054.2862      960.18531      0.99696118
    149000  -328.63103      52.762735     -381.39377      280.96514     -2098.8246      960.18531      0.99696118
    150000  -316.89061      55.170222     -372.06084      293.78518     -234.4166       960.18531      0.99696118
    151000  -335.65339      53.334554     -388.98794      284.01012      113.56688      960.18531      0.99696118
    152000  -334.39852      49.706437     -384.10495      264.69015     -799.26151      960.18531      0.99696118
    153000  -318.56047      59.062146     -377.62261      314.50994     -2738.4949      960.18531      0.99696118
    154000  -309.89748      66.511729     -376.40921      354.17947     -1051.2153      960.18531      0.99696118
    155000  -320.75958      60.842735     -381.60232      323.99169      2055.1284      960.18531      0.99696118
    156000  -321.9267       59.067413     -380.99411      314.53799      1299.6198      960.18531      0.99696118
    157000  -322.50088      48.764806     -371.26568      259.6759      -245.11403      960.18531      0.99696118
    158000  -314.02568      62.681498     -376.70718      333.78323     -912.49531      960.18531      0.99696118
    159000  -328.7938       55.732423     -384.52623      296.77893     -2198.4973      960.18531      0.99696118
    160000  -319.29515      57.745562     -377.04071      307.49904      2875.2141      960.18531      0.99696118
    161000  -334.57632      55.649985     -390.2263       296.33995     -760.93756      960.18531      0.99696118
    162000  -319.62946      60.779467     -380.40893      323.65479     -378.43139      960.18531      0.99696118
    163000  -328.84303      57.092401     -385.93543      304.02091      3765.9621      960.18531      0.99696118
    164000  -328.41521      56.75655      -385.17177      302.23248     -1400.923       960.18531      0.99696118
    165000  -315.21172      62.947557     -378.15928      335.20001     -1192.3645      960.18531      0.99696118
    166000  -323.22338      56.217233     -379.44061      299.36058      853.97351      960.18531      0.99696118
    167000  -342.54862      54.585488     -397.1341       290.67143     -1687.8739      960.18531      0.99696118
    168000  -335.81766      53.896128     -389.71379      287.00054     -792.03019      960.18531      0.99696118
    169000  -329.71073      60.889779     -390.60051      324.24221     -1854.7696      960.18531      0.99696118
    170000  -321.91335      55.234108     -377.14746      294.12538      4046.6285      960.18531      0.99696118
    171000  -332.19582      51.60605      -383.80187      274.80572     -353.86708      960.18531      0.99696118
    172000  -340.76177      46.087414     -386.84919      245.41861      1199.8934      960.18531      0.99696118
    173000  -329.22449      48.969749     -378.19424      260.76724     -3847.9111      960.18531      0.99696118
    174000  -328.8526       50.761176     -379.61378      270.30671     -337.74033      960.18531      0.99696118
    175000  -336.50519      52.346126     -388.85132      278.74667     -1469.1365      960.18531      0.99696118
    176000  -339.13772      53.097416     -392.23514      282.74735     -2087.623       960.18531      0.99696118
    177000  -331.93241      62.965632     -394.89804      335.29627     -1951.9243      960.18531      0.99696118
    178000  -343.2664       48.398765     -391.66516      257.72671     -2660.3986      960.18531      0.99696118
    179000  -335.77742      62.207747     -397.98517      331.26048      2607.5044      960.18531      0.99696118
    180000  -321.02999      63.966411     -384.99641      340.62548      5050.2009      960.18531      0.99696118
    181000  -336.65676      48.186579     -384.84334      256.5968       3498.3961      960.18531      0.99696118
    182000  -339.72876      56.784171     -396.51293      302.37957     -4482.8278      960.18531      0.99696118
    183000  -328.82053      54.2645       -383.08503      288.96215      2965.3139      960.18531      0.99696118
    184000  -325.60658      49.592135     -375.19872      264.08148      1075.807       960.18531      0.99696118
    185000  -331.89115      53.611816     -385.50296      285.48656      2734.9663      960.18531      0.99696118
    186000  -321.58478      60.865551     -382.45033      324.11319      1836.563       960.18531      0.99696118
    187000  -334.85949      44.928496     -379.78799      239.24729     -177.36135      960.18531      0.99696118
    188000  -318.08012      60.522251     -378.60237      322.2851      -466.89511      960.18531      0.99696118
    189000  -323.04372      49.819197     -372.86292      265.2906      -2120.7634      960.18531      0.99696118
    190000  -340.21714      60.712781     -400.92992      323.29968      200.27155      960.18531      0.99696118
    191000  -330.63631      59.993521     -390.62983      319.46957     -1114.4227      960.18531      0.99696118
    192000  -331.06632      49.363262     -380.42958      262.86272     -3889.3111      960.18531      0.99696118
    193000  -360.09375      37.511769     -397.60552      199.75271      1628.873       960.18531      0.99696118
    194000  -326.89344      51.325712     -378.21916      273.3129      -841.45905      960.18531      0.99696118
    195000  -336.50396      63.71768      -400.22164      339.30097     -648.76483      960.18531      0.99696118
    196000  -339.98933      57.158439     -397.14777      304.37257     -546.10368      960.18531      0.99696118
    197000  -330.13315      60.34044      -390.47359      321.31694      1747.0381      960.18531      0.99696118
    198000  -328.59941      60.306499     -388.90591      321.1362      -1038.0813      960.18531      0.99696118
    199000  -336.26312      51.976176     -388.23929      276.77667     -932.9298       960.18531      0.99696118
    200000  -326.43159      46.624408     -373.056        248.27814      1260.343       960.18531      0.99696118
    201000  -310.8728       58.235123     -369.10792      310.10598     -2098.7219      960.18531      0.99696118
    202000  -340.42992      49.71583      -390.14575      264.74017     -3170.4856      960.18531      0.99696118
    203000  -331.56753      59.892886     -391.46041      318.93369     -230.58781      960.18531      0.99696118
    204000  -322.6257       62.453686     -385.07938      332.57012     -2325.4149      960.18531      0.99696118
    205000  -305.73363      71.458799     -377.19243      380.52295      2152.6566      960.18531      0.99696118
    206000  -330.57408      57.650232     -388.22431      306.9914       1064.9404      960.18531      0.99696118
    207000  -316.3681       63.440096     -379.8082       337.82282      294.39883      960.18531      0.99696118
    208000  -306.20705      56.515205     -362.72226      300.9473      -1178.9012      960.18531      0.99696118
    209000  -326.16037      63.88085      -390.04121      340.16986      947.09455      960.18531      0.99696118
    210000  -338.15908      56.039075     -394.19815      298.41188      2748.903       960.18531      0.99696118
    211000  -319.44087      59.862883     -379.30376      318.77391      546.04068      960.18531      0.99696118
    212000  -311.69969      60.787119     -372.48681      323.69553      4859.962       960.18531      0.99696118
    213000  -331.02075      59.915404     -390.93615      319.05359     -4985.9138      960.18531      0.99696118
    214000  -316.88176      63.786427     -380.66819      339.66705      1306.8556      960.18531      0.99696118
    215000  -328.09044      46.923151     -375.01359      249.86897      228.85491      960.18531      0.99696118
    216000  -316.97959      60.839139     -377.81873      323.97254      101.86943      960.18531      0.99696118
    217000  -343.20818      48.658457     -391.86664      259.10959      421.56334      960.18531      0.99696118
    218000  -327.68275      62.557982     -390.24073      333.1255      -1003.3442      960.18531      0.99696118
    219000  -326.68576      55.658631     -382.34439      296.38599      823.33326      960.18531      0.99696118
    220000  -323.31526      62.05752      -385.37278      330.46051     -2713.0216      960.18531      0.99696118
    221000  -319.45476      59.406928     -378.86169      316.34592      231.39866      960.18531      0.99696118
    222000  -333.06426      57.100231     -390.16449      304.06261      1006.8478      960.18531      0.99696118
    223000  -344.82862      58.713568     -403.54219      312.65374      581.61305      960.18531      0.99696118
    224000  -330.42995      60.910938     -391.34088      324.35488      2149.9772      960.18531      0.99696118
    225000  -330.67443      55.049788     -385.72421      293.14386      526.88253      960.18531      0.99696118
    226000  -303.53904      60.848672     -364.38771      324.02331      2648.8139      960.18531      0.99696118
    227000  -313.89332      54.535967     -368.42928      290.40772     -2520.7854      960.18531      0.99696118
    228000  -320.51828      60.007086     -380.52537      319.54181     -424.02501      960.18531      0.99696118
    229000  -324.26942      58.012555     -382.28198      308.9208      -1312.6977      960.18531      0.99696118
    230000  -321.83002      57.834092     -379.66412      307.97047     -2841.053       960.18531      0.99696118
    231000  -335.86662      49.784828     -385.65145      265.10759     -2289.4749      960.18531      0.99696118
    232000  -318.84497      53.882983     -372.72796      286.93054     -418.52042      960.18531      0.99696118
    233000  -319.97839      59.923462     -379.90186      319.0965       1445.2341      960.18531      0.99696118
    234000  -312.96247      54.987994     -367.95046      292.8148       374.93963      960.18531      0.99696118
    235000  -339.45151      53.218872     -392.67038      283.39411     -380.54423      960.18531      0.99696118
    236000  -323.74292      63.367694     -387.11061      337.43727      2599.7901      960.18531      0.99696118
    237000  -319.27508      64.675417     -383.9505       344.40099      7103.945       960.18531      0.99696118
    238000  -329.51557      54.17465      -383.69023      288.48369     -2446.1869      960.18531      0.99696118
    239000  -336.86195      57.889827     -394.75178      308.26726      2049.507       960.18531      0.99696118
    240000  -334.78827      55.869427     -390.6577       297.50849     -2077.0922      960.18531      0.99696118
    241000  -317.07199      60.481242     -377.55324      322.06672      442.66622      960.18531      0.99696118
    242000  -336.63352      47.99164      -384.62516      255.55874     -24.828112      960.18531      0.99696118
    243000  -319.20696      57.863877     -377.07084      308.12907      1336.2269      960.18531      0.99696118
    244000  -336.11976      60.461757     -396.58151      321.96296      3872.3891      960.18531      0.99696118
    245000  -330.59368      57.174311     -387.768        304.45709      4290.4057      960.18531      0.99696118
    246000  -308.09662      55.553858     -363.65048      295.82807      2120.9354      960.18531      0.99696118
    247000  -336.02717      51.196877     -387.22405      272.62684      1321.079       960.18531      0.99696118
    248000  -338.73467      57.86763      -396.6023       308.14906     -1300.1571      960.18531      0.99696118
    249000  -333.36991      48.53558      -381.90549      258.45526     -1107.8125      960.18531      0.99696118
    250000  -331.10002      54.098805     -385.19883      288.07981      606.2725       960.18531      0.99696118
    251000  -340.5185       58.161674     -398.68018      309.71486      3313.0513      960.18531      0.99696118
    252000  -330.41972      65.117326     -395.53705      346.75418      3186.478       960.18531      0.99696118
    253000  -318.31231      62.854586     -381.1669       334.70493      2081.7297      960.18531      0.99696118
    254000  -328.61497      53.215732     -381.8307       283.37738      3687.9941      960.18531      0.99696118
    255000  -310.33295      71.397131     -381.73008      380.19457     -397.11039      960.18531      0.99696118
    256000  -338.34003      55.033747     -393.37377      293.05844      1963.6853      960.18531      0.99696118
    257000  -337.8925       51.494487     -389.38699      274.21164      517.14131      960.18531      0.99696118
    258000  -335.31945      53.666546     -388.986        285.778       -1631.4192      960.18531      0.99696118
    259000  -327.80323      52.862982     -380.66621      281.49897     -2019.2559      960.18531      0.99696118
    260000  -329.75011      50.424568     -380.17468      268.51425      2368.4066      960.18531      0.99696118
    261000  -326.66742      57.692619     -384.36004      307.21711      4233.3153      960.18531      0.99696118
    262000  -334.79196      51.60648      -386.39844      274.80801     -551.02559      960.18531      0.99696118
    263000  -312.15725      54.610292     -366.76754      290.80351      2665.2092      960.18531      0.99696118
    264000  -319.14342      49.705006     -368.84843      264.68253     -871.14611      960.18531      0.99696118
    265000  -329.7968       54.915741     -384.71254      292.43005     -624.20766      960.18531      0.99696118
    266000  -324.38973      55.400061     -379.78979      295.00908     -337.21068      960.18531      0.99696118
    267000  -338.26135      53.971709     -392.23306      287.40301      3474.1683      960.18531      0.99696118
    268000  -312.98443      57.495813     -370.48024      306.16911     -274.70936      960.18531      0.99696118
    269000  -320.49158      66.397791     -386.88937      353.57274      2268.0155      960.18531      0.99696118
    270000  -332.41606      53.264003     -385.68006      283.63443     -4467.6245      960.18531      0.99696118
    271000  -308.91026      59.240742     -368.151        315.46097      1424.7329      960.18531      0.99696118
    272000  -329.73406      52.58037      -382.31443      279.99404     -3914.2587      960.18531      0.99696118
    273000  -343.659        51.861412     -395.52042      276.16554     -2474.1908      960.18531      0.99696118
    274000  -315.00015      58.241258     -373.24141      310.13865     -477.43637      960.18531      0.99696118
    275000  -333.7821       53.619527     -387.40162      285.52762     -2570.2997      960.18531      0.99696118
    276000  -317.05673      60.50968      -377.56641      322.21815     -254.03806      960.18531      0.99696118
    277000  -331.37963      53.594952     -384.97458      285.39676     -1664.4163      960.18531      0.99696118
    278000  -310.62664      64.032989     -374.65963      340.98002     -3763.9575      960.18531      0.99696118
    279000  -312.39048      65.042526     -377.43301      346.35587      771.95948      960.18531      0.99696118
    280000  -343.82022      47.827061     -391.64728      254.68235     -2499.4311      960.18531      0.99696118
    281000  -330.7874       55.479947     -386.26734      295.43448      763.05224      960.18531      0.99696118
    282000  -320.80586      55.000997     -375.80686      292.88404     -2434.2759      960.18531      0.99696118
    283000  -323.09187      64.387274     -387.47915      342.86661      889.96153      960.18531      0.99696118
    284000  -313.7438       59.399697     -373.1435       316.30742      16.50391       960.18531      0.99696118
    285000  -324.34917      52.450843     -376.80001      279.3043      -4291.3758      960.18531      0.99696118
    286000  -341.96008      59.331318     -401.2914       315.9433      -4501.4989      960.18531      0.99696118
    287000  -340.50705      53.972944     -394.48         287.40959     -1225.1137      960.18531      0.99696118
    288000  -322.56756      58.567078     -381.13464      311.87366      4587.6782      960.18531      0.99696118
    289000  -326.34211      53.546356     -379.88847      285.13798      2534.4547      960.18531      0.99696118
    290000  -327.76437      53.39922      -381.16359      284.35447     -212.30118      960.18531      0.99696118
    291000  -326.30187      52.574521     -378.87639      279.96289      514.62781      960.18531      0.99696118
    292000  -314.67789      61.392906     -376.07079      326.92139      1.9806537      960.18531      0.99696118
    293000  -323.43239      56.617462     -380.04985      301.49183      2029.4116      960.18531      0.99696118
    294000  -328.69387      57.920033     -386.6139       308.42811      181.0763       960.18531      0.99696118
    295000  -326.44641      54.344245     -380.79065      289.38679     -2890.9617      960.18531      0.99696118
    296000  -321.45938      56.19446      -377.65384      299.23931      1260.1907      960.18531      0.99696118
    297000  -312.3111       59.819376     -372.13048      318.54224     -245.9091       960.18531      0.99696118
    298000  -299.81325      59.377915     -359.19116      316.19143     -3835.2629      960.18531      0.99696118
    299000  -339.5717       48.715112     -388.28682      259.41128     -4282.6699      960.18531      0.99696118
    300000  -326.40203      60.250392     -386.65242      320.83743      2606.6339      960.18531      0.99696118
    301000  -331.15788      48.549156     -379.70704      258.52755     -2437.3958      960.18531      0.99696118
    302000  -326.95597      69.013758     -395.96973      367.50295      2441.3885      960.18531      0.99696118
    303000  -340.10593      51.855295     -391.96123      276.13297     -2529.7322      960.18531      0.99696118
    304000  -319.70925      52.899486     -372.60873      281.69335      1242.2747      960.18531      0.99696118
    305000  -325.74312      50.074481     -375.8176       266.65001      2992.9051      960.18531      0.99696118
    306000  -333.9691       55.155119     -389.12422      293.70476     -1902.9403      960.18531      0.99696118
    307000  -336.11507      49.120337     -385.23541      261.56913     -774.1552       960.18531      0.99696118
    308000  -335.84969      56.380716     -392.2304       300.23114     -2304.0175      960.18531      0.99696118
    309000  -317.9687       61.108302     -379.077        325.40586     -1758.1371      960.18531      0.99696118
    310000  -314.38444      67.923464     -382.30791      361.69706     -5026.051       960.18531      0.99696118
    311000  -326.96012      57.06033      -384.02045      303.85013      361.24749      960.18531      0.99696118
    312000  -291.1292       71.057603     -362.1868       378.38656     -67.719647      960.18531      0.99696118
    313000  -321.69562      50.453437     -372.14906      268.66797     -2949.2821      960.18531      0.99696118
    314000  -322.21252      49.933014     -372.14554      265.89669     -3105.2407      960.18531      0.99696118
    315000  -309.83811      57.229001     -367.06711      304.74831     -1328.897       960.18531      0.99696118
    316000  -316.19025      62.124489     -378.31474      330.81712     -1368.9215      960.18531      0.99696118
    317000  -298.20434      60.266939     -358.47128      320.92554     -1095.7049      960.18531      0.99696118
    318000  -319.19468      52.316994     -371.51167      278.59155     -2573.2826      960.18531      0.99696118
    319000  -313.00477      55.003814     -368.00859      292.89905      104.77161      960.18531      0.99696118
    320000  -319.32916      56.259416     -375.58857      299.58521     -3300.6023      960.18531      0.99696118
    321000  -331.6929       60.671272     -392.36418      323.07864     -572.91368      960.18531      0.99696118
    322000  -338.78103      48.43575      -387.21678      257.92365     -1545.3754      960.18531      0.99696118
    323000  -313.27655      61.753703     -375.03026      328.84266      2218.8547      960.18531      0.99696118
    324000  -322.91438      52.921983     -375.83636      281.81315      944.6377       960.18531      0.99696118
    325000  -335.90452      43.865838     -379.77036      233.58857      447.74353      960.18531      0.99696118
    326000  -332.18183      50.874506     -383.05633      270.9102      -1970.972       960.18531      0.99696118
    327000  -330.92316      62.957352     -393.88051      335.25217     -2836.5763      960.18531      0.99696118
    328000  -324.8693       48.639438     -373.50874      259.00831     -243.36382      960.18531      0.99696118
    329000  -344.93442      50.128785     -395.06321      266.93918     -3061.978       960.18531      0.99696118
    330000  -323.25724      57.238189     -380.49543      304.79724      1241.1673      960.18531      0.99696118
    331000  -326.84426      50.819497     -377.66376      270.61727     -2976.9642      960.18531      0.99696118
    332000  -328.27053      51.80512      -380.07565      275.86578     -2731.0157      960.18531      0.99696118
    333000  -342.57161      52.726158     -395.29777      280.77037     -44.330384      960.18531      0.99696118
    334000  -342.31955      62.561387     -404.88094      333.14363     -1105.4998      960.18531      0.99696118
    335000  -322.51045      59.141639     -381.65209      314.93324     -2549.2753      960.18531      0.99696118
    336000  -354.29406      51.386309     -405.68037      273.63558     -1755.5161      960.18531      0.99696118
    337000  -319.11186      57.104901     -376.21676      304.08747     -1750.1397      960.18531      0.99696118
    338000  -333.07346      67.164514     -400.23797      357.6556      -519.50739      960.18531      0.99696118
    339000  -321.88131      61.601064     -383.48237      328.02985      77.173573      960.18531      0.99696118
    340000  -329.4261       49.388718     -378.81481      262.99828     -2112.6647      960.18531      0.99696118
    341000  -325.9889       59.070015     -385.05892      314.55184     -2583.7114      960.18531      0.99696118
    342000  -321.90185      62.563867     -384.46571      333.15684      3188.1658      960.18531      0.99696118
    343000  -324.57625      57.821058     -382.39731      307.90106     -979.67662      960.18531      0.99696118
    344000  -325.01031      55.348925     -380.35923      294.73678     -3232.8974      960.18531      0.99696118
    345000  -327.72485      59.559403     -387.28426      317.15786     -1302.8609      960.18531      0.99696118
    346000  -326.08266      59.787764     -385.87043      318.3739       5053.8561      960.18531      0.99696118
    347000  -335.49676      58.394492     -393.89125      310.95463     -585.49252      960.18531      0.99696118
    348000  -343.46581      59.327025     -402.79284      315.92043     -346.76108      960.18531      0.99696118
    349000  -333.813        57.055725     -390.86872      303.82561     -820.54076      960.18531      0.99696118
    350000  -339.22512      52.57613      -391.80125      279.97146     -2551.8423      960.18531      0.99696118
    351000  -339.17056      56.645235     -395.8158       301.63972     -2665.0796      960.18531      0.99696118
    352000  -332.83914      62.727175     -395.56631      334.02647     -2186.1417      960.18531      0.99696118
    353000  -315.05134      61.383183     -376.43452      326.86962      1127.1808      960.18531      0.99696118
    354000  -336.80631      51.297559     -388.10387      273.16298     -1843.9882      960.18531      0.99696118
    355000  -319.79406      59.376043     -379.1701       316.18146      2740.8503      960.18531      0.99696118
    356000  -305.87024      60.72368      -366.59392      323.35772      1904.5743      960.18531      0.99696118
    357000  -324.97255      59.935663     -384.90821      319.16147     -853.61755      960.18531      0.99696118
    358000  -308.3487       55.652359     -364.00106      296.35259     -905.31912      960.18531      0.99696118
    359000  -327.3207       53.882833     -381.20353      286.92974      2989.8968      960.18531      0.99696118
    360000  -316.69733      60.558287     -377.25561      322.47699     -215.42913      960.18531      0.99696118
    361000  -315.38315      60.602829     -375.98598      322.71418      2842.7191      960.18531      0.99696118
    362000  -330.13761      45.324036     -375.46164      241.35357     -3058.8561      960.18531      0.99696118
    363000  -326.55618      57.785017     -384.3412       307.70914      1767.3885      960.18531      0.99696118
    364000  -315.59168      55.57179      -371.16347      295.92355     -2538.6662      960.18531      0.99696118
    365000  -331.21854      48.621064     -379.8396       258.91047     -2808.6216      960.18531      0.99696118
    366000  -323.6363       62.286337     -385.92264      331.67898      601.46501      960.18531      0.99696118
    367000  -333.32493      47.571625     -380.89656      253.32214      1717.1275      960.18531      0.99696118
    368000  -330.61701      56.357653     -386.97466      300.10833      493.89983      960.18531      0.99696118
    369000  -328.25024      55.421376     -383.67161      295.12259      1044.3639      960.18531      0.99696118
    370000  -326.75335      54.601274     -381.35462      290.75549     -2119.9635      960.18531      0.99696118
    371000  -338.04978      57.880897     -395.93067      308.21971     -3315.6353      960.18531      0.99696118
    372000  -324.71659      62.261957     -386.97854      331.54915     -904.78511      960.18531      0.99696118
    373000  -315.35409      60.154075     -375.50817      320.32453     -909.13382      960.18531      0.99696118
    374000  -331.01815      48.364176     -379.38233      257.54252     -4267.076       960.18531      0.99696118
    375000  -333.85159      48.94491      -382.7965       260.63497      1394.3015      960.18531      0.99696118
    376000  -339.67754      62.085309     -401.76285      330.60849     -799.70932      960.18531      0.99696118
    377000  -336.25973      54.696563     -390.9563       291.26291      4003.1026      960.18531      0.99696118
    378000  -337.07143      60.488431     -397.55986      322.105       -1383.9654      960.18531      0.99696118
    379000  -323.94656      61.188255     -385.13481      325.83161     -482.37695      960.18531      0.99696118
    380000  -318.51312      66.562078     -385.0752       354.44758     -329.47884      960.18531      0.99696118
    381000  -318.82462      52.923531     -371.74816      281.8214      -1652.5978      960.18531      0.99696118
    382000  -334.26198      54.118408     -388.38039      288.1842       114.73871      960.18531      0.99696118
    383000  -326.4656       54.742752     -381.20836      291.50887      4264.1848      960.18531      0.99696118
    384000  -340.9226       46.905951     -387.82855      249.77737     -2250.6015      960.18531      0.99696118
    385000  -304.4048       58.913579     -363.31838      313.71881     -3738.6281      960.18531      0.99696118
    386000  -327.63304      49.37246      -377.0055       262.9117      -3736.8684      960.18531      0.99696118
    387000  -311.80254      72.032152     -383.83469      383.5761      -89.594428      960.18531      0.99696118
    388000  -335.27265      46.556319     -381.82897      247.91556     -1995.6844      960.18531      0.99696118
    389000  -318.4118       60.330594     -378.74239      321.26451     -5911.3707      960.18531      0.99696118
    390000  -338.663        53.783676     -392.44668      286.40173     -463.8474       960.18531      0.99696118
    391000  -308.34139      73.307561     -381.64895      390.36774      2341.2091      960.18531      0.99696118
    392000  -319.14715      61.464255     -380.61141      327.30133     -1611.5891      960.18531      0.99696118
    393000  -310.67661      64.37675      -375.05336      342.81056      521.26849      960.18531      0.99696118
    394000  -333.02975      49.959695     -382.98945      266.03877     -2776.0832      960.18531      0.99696118
    395000  -315.57086      56.960855     -372.53172      303.32042      215.70933      960.18531      0.99696118
    396000  -333.34338      60.120379     -393.46376      320.1451      -1150.7997      960.18531      0.99696118
    397000  -300.62542      68.523067     -369.14849      364.88998      670.8367       960.18531      0.99696118
    398000  -316.1372       52.541751     -368.67895      279.78839      493.67386      960.18531      0.99696118
    399000  -312.1055       71.294045     -383.39955      379.64563      1703.0922      960.18531      0.99696118
    400000  -318.16618      59.311115     -377.4773       315.83571     -2795.9939      960.18531      0.99696118
    401000  -340.08303      41.385146     -381.46818      220.37871      865.91544      960.18531      0.99696118
    402000  -329.61546      52.450194     -382.06566      279.30084      2150.6443      960.18531      0.99696118
    403000  -312.49083      68.374599     -380.86543      364.09938     -2462.7673      960.18531      0.99696118
    404000  -317.69357      59.357371     -377.05094      316.08203      1251.416       960.18531      0.99696118
    405000  -325.7446       58.152434     -383.89703      309.66566     -5448.5336      960.18531      0.99696118
    406000  -320.40728      54.852703     -375.25998      292.09437     -3876.2992      960.18531      0.99696118
    407000  -312.67302      53.738441     -366.41146      286.16084      927.2738       960.18531      0.99696118
    408000  -332.91241      53.53544      -386.44785      285.07985      2169.7425      960.18531      0.99696118
    409000  -311.53262      59.890352     -371.42297      318.92019     -4867.1911      960.18531      0.99696118
    410000  -285.87949      62.507875     -348.38736      332.85868      4939.3638      960.18531      0.99696118
    411000  -326.60771      54.121251     -380.72896      288.19933      624.31213      960.18531      0.99696118
    412000  -321.92915      50.409037     -372.33818      268.43154     -2493.3223      960.18531      0.99696118
    413000  -327.01579      61.344067     -388.35986      326.66132      618.56371      960.18531      0.99696118
    414000  -332.0905       59.088599     -391.17909      314.6508      -277.31832      960.18531      0.99696118
    415000  -317.22115      59.463589     -376.68474      316.64765     -566.13399      960.18531      0.99696118
    416000  -336.24455      42.396014     -378.64056      225.76165     -938.66991      960.18531      0.99696118
    417000  -333.49041      59.353693     -392.84411      316.06244     -300.34425      960.18531      0.99696118
    418000  -319.90202      61.667794     -381.56982      328.38519     -849.99503      960.18531      0.99696118
    419000  -309.73706      62.040711     -371.77777      330.371       -4122.0084      960.18531      0.99696118
    420000  -343.33452      52.541585     -395.8761       279.78751      3467.5382      960.18531      0.99696118
    421000  -334.87583      44.844568     -379.7204       238.80037     -1269.7191      960.18531      0.99696118
    422000  -323.45893      57.817697     -381.27663      307.88316      422.12356      960.18531      0.99696118
    423000  -318.38106      47.944547     -366.32561      255.30797      291.57448      960.18531      0.99696118
    424000  -332.46831      54.91256      -387.38087      292.41311     -1167.3843      960.18531      0.99696118
    425000  -327.24447      71.763162     -399.00763      382.14371     -1879.5121      960.18531      0.99696118
    426000  -333.91006      58.293134     -392.20319      310.4149      -606.18292      960.18531      0.99696118
    427000  -321.8217       57.39733      -379.21903      305.64468     -38.674477      960.18531      0.99696118
    428000  -315.662        61.029064     -376.69106      324.98391     -1527.1218      960.18531      0.99696118
    429000  -335.2769       58.714619     -393.99152      312.65933      1110.763       960.18531      0.99696118
    430000  -335.50847      52.674251     -388.18272      280.49396     -1270.6235      960.18531      0.99696118
    431000  -302.5595       59.822372     -362.38187      318.55819      2721.5274      960.18531      0.99696118
    432000  -318.06982      62.939961     -381.00978      335.15957      135.10684      960.18531      0.99696118
    433000  -320.34667      54.04445      -374.39112      287.79037     -1939.2473      960.18531      0.99696118
    434000  -324.85205      62.482126     -387.33418      332.72156     -1995.4628      960.18531      0.99696118
    435000  -303.69486      64.458096     -368.15295      343.24374     -3372.2266      960.18531      0.99696118
    436000  -342.05977      55.751493     -397.81127      296.88049     -4026.93        960.18531      0.99696118
    437000  -334.34976      53.041136     -387.3909       282.44765     -2845.1491      960.18531      0.99696118
    438000  -309.20592      67.623404     -376.82933      360.09922     -1057.7607      960.18531      0.99696118
    439000  -344.9901       55.441104     -400.43121      295.22764     -992.49388      960.18531      0.99696118
    440000  -343.18295      49.460826     -392.64377      263.38225     -3720.6863      960.18531      0.99696118
    441000  -330.15015      51.695347     -381.8455       275.28123     -2576.684       960.18531      0.99696118
    442000  -320.05134      58.916777     -378.96812      313.73584     -1131.0701      960.18531      0.99696118
    443000  -333.76264      54.008122     -387.77076      287.59692     -839.43244      960.18531      0.99696118
    444000  -336.77882      58.147734     -394.92655      309.64063      600.5341       960.18531      0.99696118
    445000  -353.53051      45.597214     -399.12772      242.80826      1759.3226      960.18531      0.99696118
    446000  -328.38976      55.767851     -384.15761      296.96759     -1861.9666      960.18531      0.99696118
    447000  -335.02622      51.806081     -386.8323       275.8709      -3793.4765      960.18531      0.99696118
    448000  -315.20859      60.915012     -376.12361      324.37658     -731.63007      960.18531      0.99696118
    449000  -327.19337      41.872734     -369.0661       222.97515     -2031.5733      960.18531      0.99696118
    450000  -319.15264      53.315036     -372.46767      283.90618      27.293267      960.18531      0.99696118
    451000  -338.40275      50.196435     -388.59918      267.29942     -435.83882      960.18531      0.99696118
    452000  -316.60895      57.315534     -373.92448      305.20911     -4405.8593      960.18531      0.99696118
    453000  -322.23208      54.905094     -377.13717      292.37335      719.94456      960.18531      0.99696118
    454000  -344.96456      47.413129     -392.37769      252.47813     -671.36582      960.18531      0.99696118
    455000  -331.54611      54.285651     -385.83176      289.07478     -5868.1054      960.18531      0.99696118
    456000  -321.3617       49.64765      -371.00935      264.3771      -70.913241      960.18531      0.99696118
    457000  -331.38049      61.766657     -393.14715      328.91164     -1449.78        960.18531      0.99696118
    458000  -318.9711       58.87673      -377.84783      313.52258     -1063.4952      960.18531      0.99696118
    459000  -318.90898      62.676979     -381.58595      333.75917      2272.2038      960.18531      0.99696118
    460000  -326.70841      54.961482     -381.66989      292.67363      1592.8479      960.18531      0.99696118
    461000  -307.3266       61.056871     -368.38347      325.13198      1868.6447      960.18531      0.99696118
    462000  -322.44176      61.567801     -384.00956      327.85272     -154.77663      960.18531      0.99696118
    463000  -343.56538      53.745175     -397.31056      286.1967      -2350.0607      960.18531      0.99696118
    464000  -328.6523       55.279448     -383.93175      294.36681      1812.6983      960.18531      0.99696118
    465000  -331.34         54.955992     -386.29599      292.64439      2863.4725      960.18531      0.99696118
    466000  -327.13214      54.933056     -382.0652       292.52225      132.20151      960.18531      0.99696118
    467000  -340.05661      52.737279     -392.79389      280.82959      2230.8874      960.18531      0.99696118
    468000  -321.11226      60.415455     -381.52772      321.7164       1056.1196      960.18531      0.99696118
    469000  -354.38102      56.91371      -411.29473      303.06937      1544.013       960.18531      0.99696118
    470000  -324.59929      57.861418     -382.46071      308.11598      1053.3727      960.18531      0.99696118
    471000  -326.95558      53.652302     -380.60788      285.70215      602.24279      960.18531      0.99696118
    472000  -327.79645      55.168989     -382.96544      293.77861     -39.923808      960.18531      0.99696118
    473000  -321.97154      53.998733     -375.97027      287.54692      689.4416       960.18531      0.99696118
    474000  -345.44862      52.203942     -397.65256      277.98953      1074.7546      960.18531      0.99696118
    475000  -330.77731      57.289478     -388.06679      305.07036     -625.8502       960.18531      0.99696118
    476000  -342.32193      51.644441     -393.96637      275.01015      201.16808      960.18531      0.99696118
    477000  -319.20184      61.638229     -380.84007      328.22776     -828.0435       960.18531      0.99696118
    478000  -305.26603      69.768645     -375.03468      371.52277     -4705.0824      960.18531      0.99696118
    479000  -335.41951      54.605448     -390.02495      290.77772     -954.193        960.18531      0.99696118
    480000  -331.20446      53.233248     -384.43771      283.47066     -1536.4654      960.18531      0.99696118
    481000  -338.31975      57.582923     -395.90268      306.63298     -3660.1509      960.18531      0.99696118
    482000  -319.38483      52.070473     -371.45531      277.2788      -2598.0099      960.18531      0.99696118
    483000  -339.83075      47.899368     -387.73012      255.06739      1963.663       960.18531      0.99696118
    484000  -328.95776      59.06471      -388.02247      314.52359      1102.0508      960.18531      0.99696118
    485000  -322.545        51.612214     -374.15722      274.83854      1677.7719      960.18531      0.99696118
    486000  -330.16138      64.916281     -395.07766      345.6836      -2504.5721      960.18531      0.99696118
    487000  -309.70395      51.2214       -360.92535      272.75743     -1099.6742      960.18531      0.99696118
    488000  -323.77077      50.577293     -374.34806      269.32752     -1905.0675      960.18531      0.99696118
    489000  -313.79212      54.523488     -368.31561      290.34127     -7149.9408      960.18531      0.99696118
    490000  -322.34982      62.691736     -385.04156      333.83775     -982.53274      960.18531      0.99696118
    491000  -349.16818      48.896777     -398.06496      260.37866     -650.59495      960.18531      0.99696118
    492000  -321.71232      59.422433     -381.13475      316.42849      3376.7892      960.18531      0.99696118
    493000  -335.69002      49.096685     -384.7867       261.44318      1956.7342      960.18531      0.99696118
    494000  -308.14727      56.501739     -364.64901      300.8756      -1926.2836      960.18531      0.99696118
    495000  -335.46662      48.001        -383.46762      255.60859      1590.5765      960.18531      0.99696118
    496000  -327.81303      51.831596     -379.64462      276.00677     -3582.2268      960.18531      0.99696118
    497000  -316.37652      60.024323     -376.40084      319.6336       1085.0463      960.18531      0.99696118
    498000  -314.19263      55.803638     -369.99627      297.15816     -2717.1331      960.18531      0.99696118
    499000  -314.83856      55.920933     -370.75949      297.78277     -497.12343      960.18531      0.99696118
    500000  -327.674        57.977832     -385.65184      308.73589      3733.2134      960.18531      0.99696118
    501000  -316.0415       66.72427      -382.76577      355.31127     -1341.9451      960.18531      0.99696118
    502000  -340.85692      58.201415     -399.05834      309.92649     -479.84332      960.18531      0.99696118
    503000  -322.3438       63.307814     -385.65161      337.11841      1577.6709      960.18531      0.99696118
    504000  -298.87645      57.247648     -356.1241       304.84761     -4428.9531      960.18531      0.99696118
    505000  -317.53225      58.311586     -375.84383      310.51315      4218.9282      960.18531      0.99696118
    506000  -303.67021      66.249612     -369.91982      352.78368      1543.8691      960.18531      0.99696118
    507000  -324.58839      54.17675      -378.76514      288.49487     -3377.617       960.18531      0.99696118
    508000  -315.00298      59.074234     -374.07721      314.57431     -271.28385      960.18531      0.99696118
    509000  -323.94524      53.884975     -377.83021      286.94115     -1905.3177      960.18531      0.99696118
    510000  -317.62901      61.78164      -379.41065      328.99143      421.42751      960.18531      0.99696118
    511000  -310.91944      55.123622     -366.04306      293.53703     -2530.3321      960.18531      0.99696118
    512000  -342.13264      44.277987     -386.41062      235.78329      2850.8816      960.18531      0.99696118
    513000  -320.7746       57.158632     -377.93323      304.3736       1868.7922      960.18531      0.99696118
    514000  -322.70492      57.886643     -380.59156      308.2503       4273.0583      960.18531      0.99696118
    515000  -322.91781      56.661166     -379.57898      301.72456     -2125.4449      960.18531      0.99696118
    516000  -332.3569       54.665055     -387.02195      291.09513     -64.232013      960.18531      0.99696118
    517000  -329.02147      52.355955     -381.37742      278.79902     -1934.1792      960.18531      0.99696118
    518000  -328.13649      42.93         -371.06649      228.60517     -3659.5363      960.18531      0.99696118
    519000  -320.45682      63.67835      -384.13517      339.09154      110.29803      960.18531      0.99696118
    520000  -329.56482      56.995729     -386.56055      303.50612      715.22122      960.18531      0.99696118
    521000  -325.51138      55.609308     -381.12069      296.12334     -2349.3612      960.18531      0.99696118
    522000  -329.44335      62.782228     -392.22558      334.31962      112.48374      960.18531      0.99696118
    523000  -334.45806      59.307397     -393.76546      315.81591      1742.2767      960.18531      0.99696118
    524000  -351.4412       43.839368     -395.28057      233.44761      3202.4116      960.18531      0.99696118
    525000  -335.20083      56.366801     -391.56763      300.15704      3058.0323      960.18531      0.99696118
    526000  -323.05147      59.044383     -382.09586      314.41535     -2545.0107      960.18531      0.99696118
    527000  -323.19181      58.910033     -382.10184      313.69993     -1457.975       960.18531      0.99696118
    528000  -320.99965      61.553045     -382.55269      327.77414      3784.9642      960.18531      0.99696118
    529000  -308.96135      53.073502     -362.03485      282.62         901.99951      960.18531      0.99696118
    530000  -333.62317      61.895221     -395.51839      329.59625      3535.9109      960.18531      0.99696118
    531000  -330.95882      56.687137     -387.64596      301.86285      406.15169      960.18531      0.99696118
    532000  -316.99066      62.266373     -379.25703      331.57266      1521.1072      960.18531      0.99696118
    533000  -314.32481      71.206147     -385.53095      379.17757     -3122.7704      960.18531      0.99696118
    534000  -334.04813      48.947109     -382.99524      260.64668     -3354.9754      960.18531      0.99696118
    535000  -324.64816      50.227508     -374.87567      267.46489      1739.742       960.18531      0.99696118
    536000  -309.86929      58.287428     -368.15671      310.38451      3290.7996      960.18531      0.99696118
    537000  -307.87104      67.303881     -375.17492      358.39773     -976.09854      960.18531      0.99696118
    538000  -326.15941      52.990095     -379.1495       282.17585      4774.1332      960.18531      0.99696118
    539000  -320.29131      55.225455     -375.51677      294.0793      -1343.2822      960.18531      0.99696118
    540000  -314.55337      66.106996     -380.66036      352.02424      3422.689       960.18531      0.99696118
    541000  -313.24336      57.248302     -370.49166      304.8511      -5279.9668      960.18531      0.99696118
    542000  -329.30217      49.629083     -378.93126      264.27823     -793.65915      960.18531      0.99696118
    543000  -336.55483      57.739881     -394.29471      307.46879     -825.72042      960.18531      0.99696118
    544000  -329.19934      60.157721     -389.35706      320.34395      2463.9109      960.18531      0.99696118
    545000  -350.85595      49.178278     -400.03423      261.87767      884.14184      960.18531      0.99696118
    546000  -344.66669      53.840372     -398.50706      286.70363      2696.9382      960.18531      0.99696118
    547000  -338.5314       45.161907     -383.69331      240.49022      315.59815      960.18531      0.99696118
    548000  -320.4611       58.705564     -379.16666      312.61112      780.57494      960.18531      0.99696118
    549000  -338.48551      47.843069     -386.32858      254.76759     -1214.4234      960.18531      0.99696118
    550000  -331.94877      63.005102     -394.95387      335.50645     -318.06272      960.18531      0.99696118
    551000  -319.921        74.387409     -394.30841      396.118       -1502.6521      960.18531      0.99696118
    552000  -327.577        61.222154     -388.79915      326.01212     -1665.1212      960.18531      0.99696118
    553000  -310.01442      58.365571     -368.37999      310.80063      2572.5008      960.18531      0.99696118
    554000  -317.70808      61.648706     -379.35679      328.28354     -2596.2607      960.18531      0.99696118
    555000  -331.83893      52.438773     -384.2777       279.24003      120.12745      960.18531      0.99696118
    556000  -319.57997      60.366167     -379.94614      321.45394     -5554.7215      960.18531      0.99696118
    557000  -330.52975      44.911904     -375.44166      239.15894      1990.73        960.18531      0.99696118
    558000  -332.33176      61.580657     -393.91241      327.92118     -442.64577      960.18531      0.99696118
    559000  -319.2822       51.990478     -371.27268      276.85283     -2308.3234      960.18531      0.99696118
    560000  -325.15435      53.802774     -378.95712      286.50342     -3329.6347      960.18531      0.99696118
    561000  -337.4002       54.562852     -391.96305      290.55089     -2895.9675      960.18531      0.99696118
    562000  -334.08177      49.968857     -384.05063      266.08756     -2721.5618      960.18531      0.99696118
    563000  -334.73954      56.148342     -390.88788      298.99373     -1895.0555      960.18531      0.99696118
    564000  -325.62487      52.585078     -378.20995      280.01911      1331.2865      960.18531      0.99696118
    565000  -340.53027      54.865681     -395.39595      292.16348     -4479.2337      960.18531      0.99696118
    566000  -325.90189      45.788979     -371.69087      243.82942     -1056.4921      960.18531      0.99696118
    567000  -329.27712      53.455166     -382.73229      284.65239     -1889.6495      960.18531      0.99696118
    568000  -340.43211      49.689782     -390.12189      264.60146     -1638.6197      960.18531      0.99696118
    569000  -323.28311      52.89447      -376.17758      281.66664     -2682.2493      960.18531      0.99696118
    570000  -332.48138      51.957975     -384.43936      276.67974     -1123.829       960.18531      0.99696118
    571000  -338.28818      53.402831     -391.69101      284.3737      -1068.796       960.18531      0.99696118
    572000  -330.48898      52.682963     -383.17194      280.54035     -2803.7485      960.18531      0.99696118
    573000  -324.80789      54.071671     -378.87956      287.93532      3565.6415      960.18531      0.99696118
    574000  -322.10044      73.668639     -395.76908      392.2905       1298.7256      960.18531      0.99696118
    575000  -325.31692      53.493673     -378.81059      284.85744     -560.04348      960.18531      0.99696118
    576000  -321.99208      59.332378     -381.32446      315.94894      1381.5759      960.18531      0.99696118
    577000  -322.24756      48.520223     -370.76778      258.37348      1139.7425      960.18531      0.99696118
    578000  -322.92576      61.110961     -384.03672      325.42001     -5253.9755      960.18531      0.99696118
    579000  -322.72109      60.907689     -383.62878      324.33758     -937.46284      960.18531      0.99696118
    580000  -329.8256       49.765267     -379.59087      265.00343      2503.1809      960.18531      0.99696118
    581000  -309.32733      61.892869     -371.2202       329.58373     -698.22047      960.18531      0.99696118
    582000  -322.1734       55.517162     -377.69056      295.63265     -619.24175      960.18531      0.99696118
    583000  -337.41957      49.899441     -387.31901      265.71791      562.90411      960.18531      0.99696118
    584000  -344.70836      46.721552     -391.42991      248.79543     -869.03031      960.18531      0.99696118
    585000  -323.38428      58.724998     -382.10928      312.7146       2097.0995      960.18531      0.99696118
    586000  -336.04548      54.338139     -390.38362      289.35428     -938.26268      960.18531      0.99696118
    587000  -319.13922      57.002939     -376.14216      303.54452     -2599.0998      960.18531      0.99696118
    588000  -306.05523      60.801983     -366.85721      323.77469      137.29068      960.18531      0.99696118
    589000  -326.04343      48.670208     -374.71364      259.17216     -618.13294      960.18531      0.99696118
    590000  -319.33692      56.134246     -375.47116      298.91867     -1318.9519      960.18531      0.99696118
    591000  -324.39128      56.333613     -380.72489      299.98031     -349.57368      960.18531      0.99696118
    592000  -307.558        60.140232     -367.69823      320.25082     -414.33562      960.18531      0.99696118
    593000  -354.47359      44.172645     -398.64624      235.22233     -1858.3292      960.18531      0.99696118
    594000  -326.81896      55.445605     -382.26457      295.25161      130.73252      960.18531      0.99696118
    595000  -334.39376      60.963253     -395.35701      324.63346     -3845.9134      960.18531      0.99696118
    596000  -316.68426      59.561255     -376.24551      317.16773      49.034666      960.18531      0.99696118
    597000  -324.69265      58.658455     -383.3511       312.36025     -1453.887       960.18531      0.99696118
    598000  -330.80759      54.074855     -384.88245      287.95227     -2015.6521      960.18531      0.99696118
    599000  -310.93507      48.389943     -359.32502      257.67973     -2340.4039      960.18531      0.99696118
    600000  -320.78298      50.420013     -371.20299      268.48999     -2780.2493      960.18531      0.99696118
    601000  -332.98794      49.606354     -382.5943       264.1572       895.52295      960.18531      0.99696118
    602000  -301.18715      67.574329     -368.76148      359.83789      4132.6894      960.18531      0.99696118
    603000  -319.96578      55.506735     -375.47252      295.57713      213.1541       960.18531      0.99696118
    604000  -331.99182      52.171589     -384.16341      277.81725      386.67941      960.18531      0.99696118
    605000  -343.65989      48.054541     -391.71443      255.89369     -2327.1853      960.18531      0.99696118
    606000  -322.4852       65.651754     -388.13696      349.60005      3017.3656      960.18531      0.99696118
    607000  -325.0159       52.046393     -377.06229      277.15057     -1364.6208      960.18531      0.99696118
    608000  -341.68082      63.134442     -404.81526      336.19519      1527.6805      960.18531      0.99696118
    609000  -303.76972      73.301557     -377.07128      390.33577     -3599.4172      960.18531      0.99696118
    610000  -325.66385      54.06878      -379.73263      287.91992     -1855.3999      960.18531      0.99696118
    611000  -317.84765      60.055141     -377.90279      319.7977      -3266.5817      960.18531      0.99696118
    612000  -317.70649      54.186811     -371.8933       288.54844      3510.0029      960.18531      0.99696118
    613000  -326.69314      52.850352     -379.5435       281.43171      717.21103      960.18531      0.99696118
    614000  -330.49192      52.55904      -383.05096      279.88046     -1775.1501      960.18531      0.99696118
    615000  -324.68702      54.439238     -379.12626      289.89264      1673.1234      960.18531      0.99696118
    616000  -327.84275      59.429223     -387.27198      316.46465     -2557.0759      960.18531      0.99696118
    617000  -329.92279      49.632186     -379.55497      264.29476     -115.51189      960.18531      0.99696118
    618000  -325.7243       54.712431     -380.43673      291.34741      208.57604      960.18531      0.99696118
    619000  -338.82813      56.232076     -395.0602       299.43962     -2021.6889      960.18531      0.99696118
    620000  -321.8147       68.764875     -390.57957      366.17763      1348.4512      960.18531      0.99696118
    621000  -342.99824      54.934613     -397.93285      292.53054     -4688.5243      960.18531      0.99696118
    622000  -308.67975      64.84535      -373.5251       345.30589     -276.18524      960.18531      0.99696118
    623000  -323.36781      61.721372     -385.08918      328.67049     -2830.9996      960.18531      0.99696118
    624000  -331.79127      51.056244     -382.84751      271.87796     -1288.0291      960.18531      0.99696118
    625000  -327.66465      57.298825     -384.96347      305.12013      2405.8222      960.18531      0.99696118
    626000  -333.04813      48.144642     -381.19277      256.37349     -268.7226       960.18531      0.99696118
    627000  -312.6945       58.629045     -371.32354      312.20364     -1904.8287      960.18531      0.99696118
    628000  -307.99482      61.159828     -369.15465      325.68023     -2559.3817      960.18531      0.99696118
    629000  -337.0909       55.754813     -392.84572      296.89816     -1405.0293      960.18531      0.99696118
    630000  -342.59227      45.298231     -387.8905       241.21616     -2793.7067      960.18531      0.99696118
    631000  -326.12594      52.504625     -378.63056      279.59069      1122.1033      960.18531      0.99696118
    632000  -319.00413      56.677363     -375.68149      301.8108       2328.4221      960.18531      0.99696118
    633000  -351.84317      48.924103     -400.76728      260.52417     -796.97919      960.18531      0.99696118
    634000  -322.56864      56.263668     -378.83231      299.60785     -2822.1914      960.18531      0.99696118
    635000  -316.23207      55.367135     -371.5992       294.83375     -5803.6994      960.18531      0.99696118
    636000  -290.4401       69.860435     -360.30053      372.01156     -1606.7688      960.18531      0.99696118
    637000  -327.381        55.00278      -382.38378      292.89353     -532.66687      960.18531      0.99696118
    638000  -315.96305      58.941376     -374.90442      313.86683      390.96439      960.18531      0.99696118
    639000  -314.84761      59.157562     -374.00517      315.01803     -16.037796      960.18531      0.99696118
    640000  -337.4292       51.369234     -388.79843      273.54466     -1598.077       960.18531      0.99696118
    641000  -324.56957      50.85778      -375.42735      270.82113     -1638.2715      960.18531      0.99696118
    642000  -329.15652      58.311936     -387.46845      310.51502     -1650.1237      960.18531      0.99696118
    643000  -337.61156      53.896903     -391.50847      287.00467     -1202.554       960.18531      0.99696118
    644000  -322.8774       59.446261     -382.32366      316.55537      550.60763      960.18531      0.99696118
    645000  -320.44377      59.651922     -380.09569      317.65054     -1957.4573      960.18531      0.99696118
    646000  -328.46607      49.49674      -377.96281      263.5735      -3461.3232      960.18531      0.99696118
    647000  -323.91825      51.131253     -375.0495       272.27739     -1346.7126      960.18531      0.99696118
    648000  -314.24265      63.488766     -377.73142      338.08199      2560.2308      960.18531      0.99696118
    649000  -320.57238      57.645879     -378.21826      306.96822     -1112.3554      960.18531      0.99696118
    650000  -341.04571      49.860118     -390.90582      265.50851     -480.85057      960.18531      0.99696118
[...]
   2842000  -327.38616      59.993778     -387.37994      319.47094     -1165.0627      960.18531      0.99696118
   2843000  -315.56821      65.1874       -380.75561      347.12733      2370.3169      960.18531      0.99696118
   2844000  -333.12594      48.425926     -381.55187      257.87134      1021.8098      960.18531      0.99696118
   2845000  -312.34624      54.132635     -366.47888      288.25996      3417.6273      960.18531      0.99696118
   2846000  -318.82412      53.979522     -372.80364      287.44462     -2856.5331      960.18531      0.99696118
   2847000  -313.85331      60.618001     -374.47131      322.79497     -3897.6331      960.18531      0.99696118
   2848000  -308.41941      57.440325     -365.85973      305.87363      4482.2953      960.18531      0.99696118
   2849000  -333.90523      48.632312     -382.53754      258.97036      1221.5302      960.18531      0.99696118
   2850000  -315.64345      59.473626     -375.11708      316.70109     -1651.8102      960.18531      0.99696118
   2851000  -314.53786      59.733082     -374.27094      318.08272      261.25973      960.18531      0.99696118
   2852000  -339.36258      52.249267     -391.61185      278.23089     -1230.2662      960.18531      0.99696118
   2853000  -330.73783      62.099908     -392.83773      330.68623     -512.62362      960.18531      0.99696118
   2854000  -306.11291      61.199712     -367.31263      325.89262      743.16216      960.18531      0.99696118
   2855000  -316.19453      46.100812     -362.29534      245.48995      2489.4427      960.18531      0.99696118
   2856000  -316.96734      51.007699     -367.97504      271.61946     -3763.1546      960.18531      0.99696118
   2857000  -323.94308      56.720407     -380.66349      302.04002     -1743.9244      960.18531      0.99696118
   2858000  -328.10243      55.864804     -383.96724      297.48387     -3975.9179      960.18531      0.99696118
   2859000  -328.01966      55.539147     -383.55881      295.74973     -567.91611      960.18531      0.99696118
   2860000  -335.52959      48.996817     -384.52641      260.91138     -1058.5373      960.18531      0.99696118
   2861000  -311.8076       67.238401     -379.046        358.04905     -3241.2483      960.18531      0.99696118
   2862000  -333.28569      46.653551     -379.93924      248.43333      1011.0522      960.18531      0.99696118
   2863000  -339.90923      53.570241     -393.47947      285.26517     -1804.3631      960.18531      0.99696118
   2864000  -311.99202      65.187372     -377.17939      347.12718     -244.40109      960.18531      0.99696118
   2865000  -315.71915      61.699693     -377.41884      328.55505      2276.3946      960.18531      0.99696118
   2866000  -322.70559      54.127241     -376.83283      288.23123     -294.44968      960.18531      0.99696118
   2867000  -333.28802      61.467527     -394.75555      327.31875     -2985.2537      960.18531      0.99696118
   2868000  -321.74676      58.242389     -379.98915      310.14468      324.40328      960.18531      0.99696118
   2869000  -324.72887      51.336219     -376.06509      273.36885      514.00572      960.18531      0.99696118
   2870000  -303.67258      70.624728     -374.29731      376.08147     -455.51271      960.18531      0.99696118
   2871000  -310.10359      60.586917     -370.69051      322.62945     -3740.5154      960.18531      0.99696118
   2872000  -324.12997      53.186274     -377.31624      283.22052     -117.37644      960.18531      0.99696118
   2873000  -331.88208      44.178576     -376.06066      235.25392      1253.2889      960.18531      0.99696118
   2874000  -341.95043      44.476787     -386.42722      236.84191     -179.8969       960.18531      0.99696118
   2875000  -303.8842       55.162676     -359.04687      293.74499     -2056.5526      960.18531      0.99696118
   2876000  -330.45038      64.829929     -395.28031      345.22377      765.02936      960.18531      0.99696118
   2877000  -325.73089      56.123672     -381.85456      298.86236     -705.97348      960.18531      0.99696118
   2878000  -315.69816      58.279449     -373.9776       310.34202      1999.6097      960.18531      0.99696118
   2879000  -322.02814      64.206209     -386.23435      341.90242     -2021.8956      960.18531      0.99696118
   2880000  -327.22279      48.832457     -376.05525      260.03615     -2383.809       960.18531      0.99696118
   2881000  -316.14357      52.90173      -369.0453       281.7053       4343.3448      960.18531      0.99696118
   2882000  -332.2185       61.614215     -393.83271      328.09988     -1338.8923      960.18531      0.99696118
   2883000  -323.39841      56.601688     -380.00009      301.40783     -948.1966       960.18531      0.99696118
   2884000  -340.39227      50.506982     -390.89925      268.95311      1470.2425      960.18531      0.99696118
   2885000  -317.82384      57.122213     -374.94606      304.17966     -3490.4795      960.18531      0.99696118
   2886000  -324.44838      63.482038     -387.93041      338.04616     -2268.095       960.18531      0.99696118
   2887000  -337.94346      52.856014     -390.79948      281.46186      1667.0957      960.18531      0.99696118
   2888000  -320.49095      61.135829     -381.62678      325.55244      626.97255      960.18531      0.99696118
   2889000  -324.53734      51.956053     -376.4934       276.66951      742.95779      960.18531      0.99696118
   2890000  -320.86852      65.412596     -386.28112      348.32651     -9.8112525      960.18531      0.99696118
   2891000  -317.14571      58.132914     -375.27862      309.56172      444.78658      960.18531      0.99696118
   2892000  -321.77452      47.694121     -369.46864      253.97443      6066.548       960.18531      0.99696118
   2893000  -332.30055      60.626416     -392.92696      322.83978     -4159.422       960.18531      0.99696118
   2894000  -298.141        70.420726     -368.56173      374.99515      592.07091      960.18531      0.99696118
   2895000  -312.73011      59.725778     -372.45588      318.04382     -2293.7378      960.18531      0.99696118
   2896000  -333.0035       57.506833     -390.51033      306.22779      163.78804      960.18531      0.99696118
   2897000  -336.58384      52.085809     -388.66964      277.36047      809.97164      960.18531      0.99696118
   2898000  -343.67347      51.1587       -394.83217      272.42355     -4022.6546      960.18531      0.99696118
   2899000  -317.26713      67.396165     -384.6633       358.88916     -1499.7489      960.18531      0.99696118
   2900000  -338.32745      52.233152     -390.56061      278.14508     -1673.2458      960.18531      0.99696118
   2901000  -316.44995      66.052418     -382.50236      351.73361     -1301.11        960.18531      0.99696118
   2902000  -313.83408      64.762914     -378.59699      344.86691     -1989.7686      960.18531      0.99696118
   2903000  -320.31508      53.917725     -374.2328       287.11555      1507.4219      960.18531      0.99696118
   2904000  -322.31825      61.526134     -383.84438      327.63084      1497.7026      960.18531      0.99696118
   2905000  -326.32696      47.331974     -373.65893      252.04598     -1473.5766      960.18531      0.99696118
   2906000  -330.96172      52.685634     -383.64735      280.55458     -2037.8551      960.18531      0.99696118
   2907000  -327.21956      50.248274     -377.46783      267.57547     -2931.4762      960.18531      0.99696118
   2908000  -327.09727      59.308705     -386.40597      315.82288     -749.26762      960.18531      0.99696118
   2909000  -306.28296      66.940426     -373.22339      356.46231      993.22097      960.18531      0.99696118
   2910000  -327.89592      53.465543     -381.36146      284.70765     -2554.477       960.18531      0.99696118
   2911000  -312.19696      79.207515     -391.40447      421.7854      -557.51805      960.18531      0.99696118
   2912000  -331.11103      61.000949     -392.11198      324.8342       90.504834      960.18531      0.99696118
   2913000  -339.38232      57.468326     -396.85065      306.02274      1861.1662      960.18531      0.99696118
   2914000  -339.26487      49.14392      -388.40879      261.69471      1900.0576      960.18531      0.99696118
   2915000  -347.52298      50.995849     -398.51883      271.55636      435.00113      960.18531      0.99696118
   2916000  -339.70923      61.834805     -401.54403      329.27453      1649.4248      960.18531      0.99696118
   2917000  -334.36588      60.466053     -394.83193      321.98583     -3061.2251      960.18531      0.99696118
   2918000  -344.77377      49.46729      -394.24106      263.41668     -857.11468      960.18531      0.99696118
   2919000  -329.02627      63.971149     -392.99742      340.65071     -3428.2972      960.18531      0.99696118
   2920000  -327.71765      53.642955     -381.36061      285.65238     -1015.6586      960.18531      0.99696118
   2921000  -309.62825      56.167121     -365.79537      299.09373      2536.5915      960.18531      0.99696118
   2922000  -328.22731      54.040011     -382.26732      287.76673     -2322.9332      960.18531      0.99696118
   2923000  -325.89941      47.250221     -373.14963      251.61063     -1142.3534      960.18531      0.99696118
   2924000  -322.81814      58.131176     -380.94932      309.55246     -1690.5806      960.18531      0.99696118
   2925000  -327.05544      52.594249     -379.64969      280.06795     -2816.93        960.18531      0.99696118
   2926000  -302.33845      51.676557     -354.015        275.18118     -1784.2811      960.18531      0.99696118
   2927000  -324.26684      51.275817     -375.54266      273.04721      2455.6833      960.18531      0.99696118
   2928000  -312.63678      63.953477     -376.59025      340.55661     -4691.5051      960.18531      0.99696118
   2929000  -333.82586      47.342422     -381.16828      252.10161     -2133.1146      960.18531      0.99696118
   2930000  -300.67422      67.577657     -368.25187      359.85561     -3145.3817      960.18531      0.99696118
   2931000  -322.28826      51.090886     -373.37915      272.06244     -1190.3901      960.18531      0.99696118
   2932000  -322.96428      53.994092     -376.95837      287.52221     -1156.4942      960.18531      0.99696118
   2933000  -333.31171      58.313412     -391.62512      310.52288      1200.4437      960.18531      0.99696118
   2934000  -339.65025      59.070379     -398.72063      314.55378     -1753.2771      960.18531      0.99696118
   2935000  -328.2496       61.110002     -389.3596       325.41491      3168.311       960.18531      0.99696118
   2936000  -321.10132      69.896112     -390.99744      372.20154      7621.6351      960.18531      0.99696118
   2937000  -339.43052      56.565816     -395.99633      301.21681      1733.1062      960.18531      0.99696118
   2938000  -311.19133      51.217495     -362.40883      272.73664      1502.9179      960.18531      0.99696118
   2939000  -336.49096      50.421568     -386.91253      268.49827      1199.6641      960.18531      0.99696118
   2940000  -339.84142      56.623577     -396.465        301.52439     -505.48016      960.18531      0.99696118
   2941000  -336.72046      53.022053     -389.74251      282.34603      3026.4689      960.18531      0.99696118
   2942000  -322.23162      56.122195     -378.35381      298.8545       4675.1718      960.18531      0.99696118
   2943000  -322.32312      55.835598     -378.15872      297.32835     -98.837411      960.18531      0.99696118
   2944000  -337.33678      50.491801     -387.82858      268.87227     -1892.3232      960.18531      0.99696118
   2945000  -329.66277      57.660373     -387.32315      307.0454      -3391.4005      960.18531      0.99696118
   2946000  -330.28831      52.672451     -382.96076      280.48437      2895.8317      960.18531      0.99696118
   2947000  -312.21149      61.408623     -373.62011      327.00509      567.2113       960.18531      0.99696118
   2948000  -321.9162       45.857299     -367.77349      244.19323     -4761.316       960.18531      0.99696118
   2949000  -319.06985      54.295188     -373.36504      289.12556     -316.39729      960.18531      0.99696118
   2950000  -325.46957      53.381771     -378.85134      284.26155     -511.47766      960.18531      0.99696118
   2951000  -334.30663      50.160545     -384.46718      267.10831      657.90467      960.18531      0.99696118
   2952000  -311.97579      58.971146     -370.94694      314.02536     -2107.8086      960.18531      0.99696118
   2953000  -317.17226      61.829749     -379.002        329.24761      720.04023      960.18531      0.99696118
   2954000  -333.22003      55.271455     -388.49148      294.32425     -2371.6843      960.18531      0.99696118
   2955000  -301.38923      58.116791     -359.50602      309.47586     -1334.2787      960.18531      0.99696118
   2956000  -331.82377      55.308568     -387.13234      294.52188      6853.7001      960.18531      0.99696118
   2957000  -320.99346      60.456414     -381.44987      321.93451     -973.02672      960.18531      0.99696118
   2958000  -320.31354      60.399127     -380.71266      321.62945      742.78478      960.18531      0.99696118
   2959000  -346.78797      41.674516     -388.46249      221.91963      1955.0699      960.18531      0.99696118
   2960000  -326.22899      50.104603     -376.33359      266.81041     -2263.3854      960.18531      0.99696118
   2961000  -333.71793      55.121494     -388.83943      293.5257      -2208.0873      960.18531      0.99696118
   2962000  -328.86061      55.188608     -384.04922      293.88308      1042.9513      960.18531      0.99696118
   2963000  -336.57063      47.304361     -383.87499      251.89893      466.02906      960.18531      0.99696118
   2964000  -327.26099      56.118077     -383.37907      298.83257     -4648.6169      960.18531      0.99696118
   2965000  -317.80718      57.063061     -374.87024      303.86467      476.3117       960.18531      0.99696118
   2966000  -333.597        51.104884     -384.70188      272.13698      1983.1027      960.18531      0.99696118
   2967000  -323.28484      53.986721     -377.27156      287.48296     -1391.7336      960.18531      0.99696118
   2968000  -307.54086      65.987362     -373.52822      351.38718      1848.7115      960.18531      0.99696118
   2969000  -321.65582      55.64698      -377.3028       296.32395     -4297.9625      960.18531      0.99696118
   2970000  -316.58527      58.916056     -375.50133      313.732       -388.01248      960.18531      0.99696118
   2971000  -324.00973      59.960107     -383.96984      319.29164      5155.3667      960.18531      0.99696118
   2972000  -331.95861      58.947398     -390.90601      313.8989      -3570.1049      960.18531      0.99696118
   2973000  -344.29133      52.148612     -396.43995      277.6949      -3334.2761      960.18531      0.99696118
   2974000  -325.92077      54.006428     -379.9272       287.58789     -1381.9927      960.18531      0.99696118
   2975000  -322.21324      54.708649     -376.92189      291.32727      478.16519      960.18531      0.99696118
   2976000  -310.66861      57.473106     -368.14171      306.04819      701.95951      960.18531      0.99696118
   2977000  -332.42394      53.796766     -386.2207       286.47143      725.52286      960.18531      0.99696118
   2978000  -333.78164      49.857772     -383.63942      265.49602     -1382.5796      960.18531      0.99696118
   2979000  -340.58476      50.873708     -391.45847      270.90595     -5938.4109      960.18531      0.99696118
   2980000  -335.34686      50.480078     -385.82694      268.80984     -2453.0676      960.18531      0.99696118
   2981000  -302.61746      72.092624     -374.71009      383.89811     -1892.0055      960.18531      0.99696118
   2982000  -313.74539      57.73891      -371.4843       307.46362     -1881.9898      960.18531      0.99696118
   2983000  -317.011        59.209351     -376.22035      315.29381     -3405.1433      960.18531      0.99696118
   2984000  -320.48331      60.317542     -380.80085      321.19501     -2261.0895      960.18531      0.99696118
   2985000  -341.13658      50.92855      -392.06513      271.19799      326.60469      960.18531      0.99696118
   2986000  -320.70792      58.250228     -378.95815      310.18642     -268.61879      960.18531      0.99696118
   2987000  -305.89168      69.418383     -375.31006      369.6576      -4676.6986      960.18531      0.99696118
   2988000  -330.2206       50.309834     -380.53043      267.90328     -2114.5325      960.18531      0.99696118
   2989000  -326.32545      59.755742     -386.08119      318.20338     -736.62659      960.18531      0.99696118
   2990000  -326.4481       53.801063     -380.24916      286.49431     -3338.2554      960.18531      0.99696118
   2991000  -337.76241      53.345723     -391.10813      284.06959      1155.985       960.18531      0.99696118
   2992000  -344.93463      50.780921     -395.71555      270.41185     -915.29153      960.18531      0.99696118
   2993000  -338.31328      41.421975     -379.73525      220.57483     -1198.9164      960.18531      0.99696118
   2994000  -340.86537      50.534971     -391.40034      269.10215      641.90917      960.18531      0.99696118
   2995000  -328.44043      56.031727     -384.47216      298.37275     -637.71789      960.18531      0.99696118
   2996000  -311.55231      51.088292     -362.6406       272.04862     -2959.3198      960.18531      0.99696118
   2997000  -328.00872      50.124807     -378.13353      266.918        471.14821      960.18531      0.99696118
   2998000  -340.49782      45.627154     -386.12498      242.96769      4795.6384      960.18531      0.99696118
   2999000  -336.73526      47.86102      -384.59628      254.86318     -2757.4571      960.18531      0.99696118
   3000000  -307.71655      54.582107     -362.29866      290.65343      1927.6414      960.18531      0.99696118
Loop time of 858.187 on 1 procs for 2000000 steps with 96 atoms

Performance: 201.355 ns/day, 0.119 hours/ns, 2330.494 timesteps/s
99.7% CPU use with 1 MPI tasks x 1 OpenMP threads

MPI task timing breakdown:
Section |  min time  |  avg time  |  max time  |%varavg| %total
---------------------------------------------------------------
Pair    | 673.04     | 673.04     | 673.04     |   0.0 | 78.43
Bond    | 0.1021     | 0.1021     | 0.1021     |   0.0 |  0.01
Kspace  | 116.64     | 116.64     | 116.64     |   0.0 | 13.59
Neigh   | 30.684     | 30.684     | 30.684     |   0.0 |  3.58
Comm    | 22.927     | 22.927     | 22.927     |   0.0 |  2.67
Output  | 0.27512    | 0.27512    | 0.27512    |   0.0 |  0.03
Modify  | 11.17      | 11.17      | 11.17      |   0.0 |  1.30
Other   |            | 3.341      |            |       |  0.39

Nlocal:             96 ave          96 max          96 min
Histogram: 1 0 0 0 0 0 0 0 0 0
Nghost:           3709 ave        3709 max        3709 min
Histogram: 1 0 0 0 0 0 0 0 0 0
Neighs:          34677 ave       34677 max       34677 min
Histogram: 1 0 0 0 0 0 0 0 0 0

Total # of neighbors = 34677
Ave neighs/atom = 361.21875
Ave special neighs/atom = 2
Neighbor list builds = 43284
Dangerous builds = 0

# write data file
write_data data.after_prod.lmp
System init for write_data ...
PPPM initialization ...
  using 12-bit tables for long-range coulomb (src/kspace.cpp:342)
  G vector (1/distance) = 0.30847861
  grid = 9 9 9
  stencil order = 5
  estimated absolute RMS force accuracy = 0.0027675926
  estimated relative force accuracy = 8.334523e-06
  using double precision FFTW3
  3d grid and FFT values/proc = 4096 729
Generated 1 of 1 mixed pair_coeff terms from geometric mixing rule

# clean up
undump dPROD
unfix fTHERMO
unfix fMOM
unfix fSHAKE
Total wall time: 0:21:27
