LAMMPS (23 Jun 2022 - Update 4)
  using 1 OpenMP thread(s) per MPI task
# created by fftool

# System settings
units real
boundary p p p  # Periodic boundary conditions

# definition of atoms, bonds, angles
atom_style full
bond_style harmonic
angle_style harmonic

# definition of pair potentials
special_bonds lj/coul 0.0 0.0 0.5
pair_style lj/cut/coul/long 10.0 10.0
pair_modify mix geometric tail yes
kspace_style pppm 1.0e-5

# read data file
read_data data.lmp
Reading data file ...
  orthogonal box = (0 0 0) to (15.660478 15.660478 15.660478)
  1 by 1 by 2 MPI processor grid
  reading atoms ...
  384 atoms
  scanning bonds ...
  1 = max bonds/atom
  scanning angles ...
  1 = max angles/atom
  reading bonds ...
  256 bonds
  reading angles ...
  128 angles
Finding 1-2 1-3 1-4 neighbors ...
  special bond factors lj:    0        0        0.5
  special bond factors coul:  0        0        0.5
     2 = max # of 1-2 neighbors
     1 = max # of 1-3 neighbors
     1 = max # of 1-4 neighbors
     2 = max # of special neighbors
  special bonds CPU = 0.000 seconds
  read_data CPU = 0.006 seconds

# definition of LJ parameters
pair_coeff    1    1     0.000000     0.000000  # Hw Hw
pair_coeff    2    2     0.162876     3.153970  # Ow-Ow

############################################

# remove energy hotspots
minimize 1.0e-4 1.0e-6 100 1000
WARNING: Using 'neigh_modify every 1 delay 0 check yes' setting during minimization (src/min.cpp:187)
PPPM initialization ...
  using 12-bit tables for long-range coulomb (src/kspace.cpp:342)
  G vector (1/distance) = 0.31203871
  grid = 15 15 15
  stencil order = 5
  estimated absolute RMS force accuracy = 0.0022228175
  estimated relative force accuracy = 6.6939488e-06
  using double precision FFTW3
  3d grid and FFT values/proc = 6776 1800
Generated 1 of 1 mixed pair_coeff terms from geometric mixing rule
Neighbor list info ...
  update every 1 steps, delay 0 steps, check yes
  max neighbors/atom: 2000, page size: 100000
  master list distance cutoff = 12
  ghost atom cutoff = 12
  binsize = 6, bins = 3 3 3
  1 neighbor lists, perpetual/occasional/extra = 1 0 0
  (1) pair lj/cut/coul/long, perpetual
      attributes: half, newton on
      pair build: half/bin/newton
      stencil: half/bin/3d
      bin: standard
Per MPI rank memory allocation (min/avg/max) = 8.675 | 8.675 | 8.675 Mbytes
   Step          Temp          E_pair         E_mol          TotEng         Press
         0   0              975738.99      8.9197793e-07  975738.99      69758846
       100   0             -1955.8095      164.35032     -1791.4592     -8399.3007
Loop time of 0.231754 on 2 procs for 100 steps with 384 atoms

99.6% CPU use with 2 MPI tasks x 1 OpenMP threads

Minimization stats:
  Stopping criterion = max iterations
  Energy initial, next-to-last, final =
      975738.985793708  -1788.61956977834     -1791.45915327
  Force two-norm initial, final = 11691783 42.52402
  Force max component initial, final = 7408882.6 11.884244
  Final line search alpha, max atom move = 0.0014813878 0.017605175
  Iterations, force evaluations = 100 168

MPI task timing breakdown:
Section |  min time  |  avg time  |  max time  |%varavg| %total
---------------------------------------------------------------
Pair    | 0.17124    | 0.17417    | 0.1771     |   0.7 | 75.15
Bond    | 0.00064117 | 0.00068162 | 0.00072208 |   0.0 |  0.29
Kspace  | 0.034434   | 0.037407   | 0.04038    |   1.5 | 16.14
Neigh   | 0.0057901  | 0.0057913  | 0.0057926  |   0.0 |  2.50
Comm    | 0.012147   | 0.012153   | 0.012158   |   0.0 |  5.24
Output  | 1.2678e-05 | 1.5331e-05 | 1.7984e-05 |   0.0 |  0.01
Modify  | 0          | 0          | 0          |   0.0 |  0.00
Other   |            | 0.001538   |            |       |  0.66

Nlocal:            192 ave         195 max         189 min
Histogram: 1 0 0 0 0 0 0 0 0 1
Nghost:           4752 ave        4752 max        4752 min
Histogram: 2 0 0 0 0 0 0 0 0 0
Neighs:          69302 ave       70672 max       67932 min
Histogram: 1 0 0 0 0 0 0 0 0 1

Total # of neighbors = 138604
Ave neighs/atom = 360.94792
Ave special neighs/atom = 2
Neighbor list builds = 4
Dangerous builds = 0
reset_timestep 0

# constrain water bonds and angles
fix fSHAKE all shake 0.0001 20 0 b 1 a 1
       0 = # of size 2 clusters
       0 = # of size 3 clusters
       0 = # of size 4 clusters
     128 = # of frozen angles
  find clusters CPU = 0.000 seconds

# remove Center of Mass movement every 100 steps
fix fMOM all momentum 100 linear 1 1 1

# define the neighbor list
neighbor 2.0 bin

# IMPORTANT: timestep and temperature and pressure
timestep 1.0
variable vTK equal 298.15
variable vPBAR equal 1.0

# randomize velocities
velocity all create ${vTK} 51591
velocity all create 298.15 51591

# thermostat (solving the ODE)
fix fTHERMO all nvt temp ${vTK} ${vTK} 100
fix fTHERMO all nvt temp 298.15 ${vTK} 100
fix fTHERMO all nvt temp 298.15 298.15 100

# print settings
thermo 1000
thermo_style custom step etotal ke pe temp press vol density
# trajectory output
dump dEQUI all custom 1000 equi.lammpstrj id element xu yu zu
dump_modify dEQUI element H O sort id

# equilibration
# 1 ns
run 1000000
PPPM initialization ...
  using 12-bit tables for long-range coulomb (src/kspace.cpp:342)
  G vector (1/distance) = 0.31203871
  grid = 15 15 15
  stencil order = 5
  estimated absolute RMS force accuracy = 0.0022228175
  estimated relative force accuracy = 6.6939488e-06
  using double precision FFTW3
  3d grid and FFT values/proc = 6776 1800
Generated 1 of 1 mixed pair_coeff terms from geometric mixing rule
Per MPI rank memory allocation (min/avg/max) = 9.712 | 9.712 | 9.712 Mbytes
   Step         TotEng         KinEng         PotEng          Temp          Press          Volume        Density
         0  -1729.1837      226.62577     -1955.8095      298.15        -7719.1827      3840.7412      0.99696119
      1000  -1279.3255      242.90733     -1522.2328      319.57009      2078.7262      3840.7412      0.99696119
      2000  -1343.6615      223.93477     -1567.5963      294.6097      -1424.8119      3840.7412      0.99696119
      3000  -1293.9255      228.66381     -1522.5893      300.83125      321.37126      3840.7412      0.99696119
      4000  -1353.2247      239.58738     -1592.8121      315.20236     -2169.691       3840.7412      0.99696119
      5000  -1357.1573      195.34422     -1552.5015      256.99583     -1283.7691      3840.7412      0.99696119
      6000  -1312.6933      230.95838     -1543.6517      303.85        -873.17519      3840.7412      0.99696119
      7000  -1331.1456      219.2589      -1550.4045      288.45811     -1347.5764      3840.7412      0.99696119
      8000  -1321.2606      229.39076     -1550.6514      301.78763     -1411.582       3840.7412      0.99696119
      9000  -1313.0048      242.35858     -1555.3633      318.84817     -303.5187       3840.7412      0.99696119
     10000  -1347.4285      214.92262     -1562.3512      282.75327     -189.81928      3840.7412      0.99696119
     11000  -1361.5819      217.67638     -1579.2583      286.37614      507.10865      3840.7412      0.99696119
     12000  -1325.3967      244.39997     -1569.7966      321.53383     -1274.9819      3840.7412      0.99696119
     13000  -1378.6655      211.01241     -1589.6779      277.60898     -1808.3629      3840.7412      0.99696119
     14000  -1353.699       233.52963     -1587.2287      307.23275     -869.54047      3840.7412      0.99696119
     15000  -1322.4685      238.48638     -1560.9549      313.75388     -488.31206      3840.7412      0.99696119
     16000  -1346.7158      229.36806     -1576.0839      301.75777     -1016.2998      3840.7412      0.99696119
     17000  -1340.0467      229.90199     -1569.9486      302.46022     -1303.3052      3840.7412      0.99696119
     18000  -1332.2298      232.02672     -1564.2565      305.25551     -1341.9541      3840.7412      0.99696119
     19000  -1296.2932      259.1063      -1555.3994      340.88154     -603.83031      3840.7412      0.99696119
     20000  -1354.3944      233.09762     -1587.4921      306.6644      -2391.0659      3840.7412      0.99696119
     21000  -1333.5942      240.85176     -1574.446       316.86579     -383.69614      3840.7412      0.99696119
     22000  -1347.6248      216.34265     -1563.9674      284.62148     -1824.8576      3840.7412      0.99696119
     23000  -1295.7224      223.41543     -1519.1378      293.92645     -708.59954      3840.7412      0.99696119
     24000  -1332.5235      212.74491     -1545.2685      279.88827     -1053.7415      3840.7412      0.99696119
     25000  -1323.1837      224.56409     -1547.7478      295.43764      48.705603      3840.7412      0.99696119
     26000  -1299.3332      235.15939     -1534.4926      309.37687     -425.89341      3840.7412      0.99696119
     27000  -1327.8007      226.02486     -1553.8255      297.35943      1320.88        3840.7412      0.99696119
     28000  -1296.8749      236.80928     -1533.6842      311.54748     -841.90673      3840.7412      0.99696119
     29000  -1331.2547      211.35838     -1542.6131      278.06415      626.26729      3840.7412      0.99696119
     30000  -1310.8682      233.58696     -1544.4552      307.30818     -244.97023      3840.7412      0.99696119
     31000  -1314.2746      249.18892     -1563.4635      327.83419     -980.17374      3840.7412      0.99696119
     32000  -1353.3566      220.42821     -1573.7848      289.99646     -241.12277      3840.7412      0.99696119
     33000  -1298.2212      255.44107     -1553.6623      336.05956     -539.93808      3840.7412      0.99696119
     34000  -1378.7801      208.28553     -1587.0657      274.02149     -73.904805      3840.7412      0.99696119
     35000  -1367.5268      227.35851     -1594.8854      299.114       -1274.932       3840.7412      0.99696119
     36000  -1337.5584      248.34682     -1585.9052      326.72632      571.60302      3840.7412      0.99696119
     37000  -1332.6709      249.03603     -1581.707       327.63305     -847.63259      3840.7412      0.99696119
     38000  -1333.3921      238.48904     -1571.8812      313.75737     -1729.4648      3840.7412      0.99696119
     39000  -1368.05        204.82458     -1572.8746      269.46824     -1665.065       3840.7412      0.99696119
     40000  -1329.2542      234.58404     -1563.8383      308.61993     -445.80436      3840.7412      0.99696119
     41000  -1351.122       219.19974     -1570.3218      288.38027     -979.77512      3840.7412      0.99696119
     42000  -1346.9766      227.5347      -1574.5113      299.34579     -1345.363       3840.7412      0.99696119
     43000  -1331.8891      232.65546     -1564.5446      306.08268      3159.4795      3840.7412      0.99696119
     44000  -1347.8225      220.51085     -1568.3334      290.10518     -428.72725      3840.7412      0.99696119
     45000  -1334.2492      240.33212     -1574.5813      316.18215     -928.82039      3840.7412      0.99696119
     46000  -1336.9096      226.84873     -1563.7583      298.44333     -178.05361      3840.7412      0.99696119
     47000  -1331.209       236.28103     -1567.49        310.85251     -2203.8396      3840.7412      0.99696119
     48000  -1365.8998      212.63671     -1578.5365      279.74593     -2301.8315      3840.7412      0.99696119
     49000  -1323.3372      229.67877     -1553.016       302.16654      460.30407      3840.7412      0.99696119
     50000  -1350.1403      220.22239     -1570.3627      289.72568     -832.65211      3840.7412      0.99696119
     51000  -1381.4151      219.07257     -1600.4877      288.21297     -2190.4797      3840.7412      0.99696119
     52000  -1359.8687      208.47229     -1568.3409      274.26719     -1242.2072      3840.7412      0.99696119
     53000  -1368.9436      227.73431     -1596.6779      299.6084      -1403.5675      3840.7412      0.99696119
     54000  -1348.3161      208.87579     -1557.1919      274.79804      451.53684      3840.7412      0.99696119
     55000  -1325.5369      223.70371     -1549.2406      294.30571     -2046.472       3840.7412      0.99696119
     56000  -1358.925       220.22895     -1579.1539      289.73432     -476.95942      3840.7412      0.99696119
     57000  -1325.0358      218.76477     -1543.8005      287.80803      1176.7929      3840.7412      0.99696119
     58000  -1358.1443      233.79935     -1591.9437      307.58759     -517.9176       3840.7412      0.99696119
     59000  -1337.2505      228.82107     -1566.0716      301.03814     -2027.611       3840.7412      0.99696119
     60000  -1363.3274      225.16921     -1588.4966      296.23374     -2088.2358      3840.7412      0.99696119
     61000  -1336.3926      229.65714     -1566.0498      302.13808     -103.80256      3840.7412      0.99696119
     62000  -1366.9815      208.87124     -1575.8527      274.79205      72.990313      3840.7412      0.99696119
     63000  -1316.5515      221.4021      -1537.9536      291.27772     -1143.7216      3840.7412      0.99696119
     64000  -1343.7432      222.86231     -1566.6055      293.19877     -1318.4599      3840.7412      0.99696119
     65000  -1288.653       242.1787      -1530.8317      318.61151     -1467.8422      3840.7412      0.99696119
     66000  -1329.4217      208.9289      -1538.3506      274.86791     -1240.1494      3840.7412      0.99696119
     67000  -1340.0772      223.5739      -1563.6511      294.13495      53.855015      3840.7412      0.99696119
     68000  -1299.6505      242.01435     -1541.6648      318.3953      -802.78263      3840.7412      0.99696119
     69000  -1346.5756      214.41404     -1560.9896      282.08418      292.47812      3840.7412      0.99696119
     70000  -1316.2947      248.4669      -1564.7616      326.8843      -681.55517      3840.7412      0.99696119
     71000  -1353.3608      233.77298     -1587.1338      307.5529      -765.00324      3840.7412      0.99696119
     72000  -1365.3821      223.95661     -1589.3387      294.63843     -1625.0952      3840.7412      0.99696119
     73000  -1333.7134      221.00657     -1554.72        290.75735     -1662.7529      3840.7412      0.99696119
     74000  -1346.0832      227.03822     -1573.1214      298.69262     -1792.6778      3840.7412      0.99696119
     75000  -1364.1808      227.17391     -1591.3547      298.87113     -57.873626      3840.7412      0.99696119
     76000  -1350.1073      218.71269     -1568.82        287.73951     -1257.3826      3840.7412      0.99696119
     77000  -1345.3531      217.05992     -1562.413       285.56512      311.461        3840.7412      0.99696119
     78000  -1332.9167      216.43917     -1549.3559      284.74846     -836.96634      3840.7412      0.99696119
     79000  -1331.2039      218.27088     -1549.4748      287.15826     -692.87996      3840.7412      0.99696119
     80000  -1314.8788      227.08948     -1541.9682      298.76005      119.43893      3840.7412      0.99696119
     81000  -1365.5775      213.81207     -1579.3895      281.29223     -312.15883      3840.7412      0.99696119
     82000  -1329.5482      215.43481     -1544.983       283.42711     -79.812861      3840.7412      0.99696119
     83000  -1315.7366      245.88557     -1561.6221      323.48828      1551.4796      3840.7412      0.99696119
     84000  -1351.9926      221.71828     -1573.7108      291.69368     -2502.8509      3840.7412      0.99696119
     85000  -1329.9092      233.58266     -1563.4919      307.30252     -661.15037      3840.7412      0.99696119
     86000  -1347.8764      227.07444     -1574.9508      298.74027     -386.47023      3840.7412      0.99696119
     87000  -1343.3523      225.95228     -1569.3046      297.26395     -533.92396      3840.7412      0.99696119
     88000  -1311.0866      242.9511      -1554.0377      319.62768      160.06868      3840.7412      0.99696119
     89000  -1343.2408      227.86908     -1571.1099      299.78571     -2768.4913      3840.7412      0.99696119
     90000  -1353.6448      216.86289     -1570.5077      285.3059      -994.56869      3840.7412      0.99696119
     91000  -1349.9629      224.60084     -1574.5637      295.48599     -184.64964      3840.7412      0.99696119
     92000  -1378.1986      212.84255     -1591.0412      280.01673     -520.70808      3840.7412      0.99696119
     93000  -1359.5587      221.68475     -1581.2435      291.64957      861.26904      3840.7412      0.99696119
     94000  -1361.0878      224.40345     -1585.4913      295.2263       1226.1432      3840.7412      0.99696119
     95000  -1352.4006      220.84052     -1573.2412      290.5389      -1884.9149      3840.7412      0.99696119
     96000  -1345.5506      225.20258     -1570.7532      296.27764     -2249.7369      3840.7412      0.99696119
     97000  -1360.1318      239.00947     -1599.1412      314.44205     -1073.9092      3840.7412      0.99696119
     98000  -1351.7243      218.21956     -1569.9439      287.09075     -2125.3203      3840.7412      0.99696119
     99000  -1367.0476      215.89873     -1582.9463      284.03744     -3404.105       3840.7412      0.99696119
    100000  -1359.3703      233.29708     -1592.6674      306.92681     -738.16378      3840.7412      0.99696119
    101000  -1360.5481      217.6774      -1578.2255      286.37747      194.25779      3840.7412      0.99696119
    102000  -1373.5056      227.39902     -1600.9047      299.16729     -675.49571      3840.7412      0.99696119
    103000  -1361.3884      213.51245     -1574.9009      280.89805     -3391.4809      3840.7412      0.99696119
    104000  -1349.6533      222.22396     -1571.8773      292.35896     -322.02816      3840.7412      0.99696119
    105000  -1286.0368      241.52284     -1527.5596      317.74865      502.94         3840.7412      0.99696119
    106000  -1352.7733      218.3922      -1571.1655      287.31788      2308.0731      3840.7412      0.99696119
    107000  -1377.2391      211.99225     -1589.2314      278.89806      858.23168      3840.7412      0.99696119
    108000  -1336.1371      226.87485     -1563.0119      298.47769     -285.31117      3840.7412      0.99696119
    109000  -1287.7477      233.42439     -1521.1721      307.0943      -893.05416      3840.7412      0.99696119
    110000  -1331.4184      236.67841     -1568.0968      311.37531     -64.129071      3840.7412      0.99696119
    111000  -1327.3698      216.07789     -1543.4477      284.27316      384.16584      3840.7412      0.99696119
    112000  -1350.6872      204.46236     -1555.1496      268.9917      -1507.8912      3840.7412      0.99696119
    113000  -1352.2858      219.44098     -1571.7268      288.69765      941.20353      3840.7412      0.99696119
    114000  -1297.028       228.40209     -1525.43        300.48693      151.59937      3840.7412      0.99696119
    115000  -1338.1314      222.92959     -1561.061       293.28729     -1424.64        3840.7412      0.99696119
    116000  -1321.0783      234.59129     -1555.6696      308.62947     -273.85624      3840.7412      0.99696119
    117000  -1331.2173      214.89821     -1546.1155      282.72116     -1410.3136      3840.7412      0.99696119
    118000  -1320.173       212.91305     -1533.086       280.10947     -1603.263       3840.7412      0.99696119
    119000  -1338.677       240.9167      -1579.5937      316.95122     -561.58835      3840.7412      0.99696119
    120000  -1365.9258      223.92849     -1589.8543      294.60144     -494.68145      3840.7412      0.99696119
    121000  -1324.9884      233.01706     -1558.0054      306.55841     -2095.0557      3840.7412      0.99696119
    122000  -1360.6667      216.99235     -1577.6591      285.47622      913.02293      3840.7412      0.99696119
    123000  -1317.5963      236.64453     -1554.2408      311.33073     -224.16655      3840.7412      0.99696119
    124000  -1315.3035      214.84991     -1530.1534      282.65762      62.993602      3840.7412      0.99696119
    125000  -1327.5765      235.29056     -1562.8671      309.54944     -1318.1842      3840.7412      0.99696119
    126000  -1360.5602      211.46111     -1572.0213      278.1993      -752.98945      3840.7412      0.99696119
    127000  -1354.8705      220.94014     -1575.8106      290.66996      152.56275      3840.7412      0.99696119
    128000  -1397.1388      212.13059     -1609.2694      279.08006     -1075.8923      3840.7412      0.99696119
    129000  -1344.2881      217.19165     -1561.4797      285.73842     -1285.5382      3840.7412      0.99696119
    130000  -1312.3497      228.69906     -1541.0487      300.87763      1017.3479      3840.7412      0.99696119
    131000  -1325.1591      231.63839     -1556.7975      304.74463     -1468.5452      3840.7412      0.99696119
    132000  -1342.5234      208.0887      -1550.6121      273.76254     -40.729044      3840.7412      0.99696119
    133000  -1316.0401      236.04094     -1552.081       310.53664     -2383.0011      3840.7412      0.99696119
    134000  -1324.7714      235.6552      -1560.4266      310.02916     -1237.2614      3840.7412      0.99696119
    135000  -1339.8427      226.4746      -1566.3173      297.95112      137.87762      3840.7412      0.99696119
    136000  -1360.2087      235.41927     -1595.628       309.71877      2024.2563      3840.7412      0.99696119
    137000  -1333.7882      233.28836     -1567.0766      306.91534     -650.31617      3840.7412      0.99696119
    138000  -1329.2347      231.68921     -1560.9239      304.81149     -255.76738      3840.7412      0.99696119
    139000  -1341.125       230.54361     -1571.6686      303.30432      1354.8741      3840.7412      0.99696119
    140000  -1332.8242      221.89028     -1554.7145      291.91996     -2564.0964      3840.7412      0.99696119
    141000  -1368.7731      209.7314      -1578.5045      275.92368     -967.26518      3840.7412      0.99696119
    142000  -1361.6089      227.42257     -1589.0315      299.19827     -12.556357      3840.7412      0.99696119
    143000  -1336.4977      225.96671     -1562.4644      297.28293      279.42576      3840.7412      0.99696119
    144000  -1317.1625      215.30527     -1532.4677      283.25669     -895.04074      3840.7412      0.99696119
    145000  -1321.4519      234.51646     -1555.9684      308.53103      604.73493      3840.7412      0.99696119
    146000  -1355.4469      220.45781     -1575.9047      290.0354      -310.23076      3840.7412      0.99696119
    147000  -1364.1622      217.81624     -1581.9784      286.56014      764.65346      3840.7412      0.99696119
    148000  -1334.5319      226.84573     -1561.3777      298.43937     -1715.6343      3840.7412      0.99696119
    149000  -1324.2637      239.41744     -1563.6812      314.97878     -1558.5221      3840.7412      0.99696119
    150000  -1361.6806      235.25088     -1596.9315      309.49724     -780.10879      3840.7412      0.99696119
    151000  -1348.6153      210.96428     -1559.5796      277.54566     -671.49181      3840.7412      0.99696119
    152000  -1335.0451      226.6857      -1561.7308      298.22885     -1471.1363      3840.7412      0.99696119
    153000  -1390.3813      209.84198     -1600.2233      276.06916     -66.053605      3840.7412      0.99696119
    154000  -1344.8858      214.93443     -1559.8202      282.76881     -621.72398      3840.7412      0.99696119
    155000  -1346.1588      241.72393     -1587.8828      318.01321     -225.88787      3840.7412      0.99696119
    156000  -1337.8325      234.53069     -1572.3632      308.54975     -1168.398       3840.7412      0.99696119
    157000  -1311.3272      222.29819     -1533.6253      292.45661      11.935001      3840.7412      0.99696119
    158000  -1338.7156      246.02873     -1584.7443      323.67662      1521.8637      3840.7412      0.99696119
    159000  -1362.75        215.47995     -1578.2299      283.4865      -672.55838      3840.7412      0.99696119
    160000  -1345.5609      230.87698     -1576.4379      303.74291      2157.498       3840.7412      0.99696119
    161000  -1389.8274      206.88415     -1596.7115      272.17782     -662.71856      3840.7412      0.99696119
    162000  -1347.9525      221.60225     -1569.5548      291.54103     -2216.9599      3840.7412      0.99696119
    163000  -1338.3415      227.4069      -1565.7484      299.17765      558.81073      3840.7412      0.99696119
    164000  -1328.7914      231.32715     -1560.1185      304.33516      932.36246      3840.7412      0.99696119
    165000  -1341.341       209.93065     -1551.2717      276.18582     -2702.3844      3840.7412      0.99696119
    166000  -1320.6542      214.99526     -1535.6494      282.84884     -1782.8314      3840.7412      0.99696119
    167000  -1326.8815      235.42974     -1562.3113      309.73255     -479.0887       3840.7412      0.99696119
    168000  -1320.1723      242.60052     -1562.7728      319.16646      472.53783      3840.7412      0.99696119
    169000  -1369.1743      223.80774     -1592.9821      294.44258     -2046.073       3840.7412      0.99696119
    170000  -1340.1943      236.65604     -1576.8504      311.34587      102.96654      3840.7412      0.99696119
    171000  -1330.3076      237.65362     -1567.9612      312.65829      80.815936      3840.7412      0.99696119
    172000  -1293.3909      241.09725     -1534.4882      317.18875     -738.67903      3840.7412      0.99696119
    173000  -1329.3973      219.43539     -1548.8327      288.69029     -1857.2119      3840.7412      0.99696119
    174000  -1377.2337      213.88634     -1591.12        281.38994     -555.16764      3840.7412      0.99696119
    175000  -1323.7622      232.17657     -1555.9387      305.45265     -1182.8979      3840.7412      0.99696119
    176000  -1392.691       209.39947     -1602.0905      275.48699      5.278019       3840.7412      0.99696119
    177000  -1325.1829      227.64656     -1552.8295      299.49295      741.1902       3840.7412      0.99696119
    178000  -1298.127       235.16933     -1533.2963      309.38994      2287.8971      3840.7412      0.99696119
    179000  -1349.3054      232.42024     -1581.7256      305.77324     -1314.6962      3840.7412      0.99696119
    180000  -1358.692       225.79428     -1584.4863      297.05608     -521.85509      3840.7412      0.99696119
    181000  -1329.3877      235.23225     -1564.6199      309.47273      70.70992       3840.7412      0.99696119
    182000  -1323.4921      238.63368     -1562.1258      313.94767     -1171.0459      3840.7412      0.99696119
    183000  -1345.5142      211.13548     -1556.6496      277.77089      1788.5657      3840.7412      0.99696119
    184000  -1355.3871      221.23459     -1576.6217      291.05733     -642.41155      3840.7412      0.99696119
    185000  -1310.268       237.79562     -1548.0636      312.84511     -956.74159      3840.7412      0.99696119
    186000  -1391.816       220.10172     -1611.9177      289.56692     -589.28117      3840.7412      0.99696119
    187000  -1378.9392      220.62895     -1599.5682      290.26055      674.9969       3840.7412      0.99696119
    188000  -1393.9667      204.85588     -1598.8226      269.50942     -671.40796      3840.7412      0.99696119
    189000  -1354.2784      227.26131     -1581.5397      298.98612     -935.87239      3840.7412      0.99696119
    190000  -1346.8471      231.89795     -1578.745       305.0861      -897.285        3840.7412      0.99696119
    191000  -1350.6258      218.69636     -1569.3221      287.71803     -1121.3475      3840.7412      0.99696119
    192000  -1357.1125      222.02628     -1579.1388      292.09889     -1224.818       3840.7412      0.99696119
    193000  -1348.8054      235.33204     -1584.1374      309.60401     -1317.002       3840.7412      0.99696119
    194000  -1350.9425      237.19735     -1588.1399      312.05802     -396.78044      3840.7412      0.99696119
    195000  -1344.6771      219.43118     -1564.1083      288.68476      1455.9092      3840.7412      0.99696119
    196000  -1355.6401      226.38522     -1582.0253      297.83353     -1043.1707      3840.7412      0.99696119
    197000  -1340.258       226.21966     -1566.4776      297.61572     -207.85188      3840.7412      0.99696119
    198000  -1337.9176      229.33993     -1567.2575      301.72076     -1334.5978      3840.7412      0.99696119
    199000  -1368.4847      220.35979     -1588.8445      289.90645      1216.3774      3840.7412      0.99696119
    200000  -1348.1566      241.65613     -1589.8127      317.92401      1842.479       3840.7412      0.99696119
    201000  -1336.9288      198.53281     -1535.4616      261.19076     -135.29098      3840.7412      0.99696119
    202000  -1334.1869      223.83264     -1558.0195      294.47534     -946.91593      3840.7412      0.99696119
    203000  -1334.9254      231.48193     -1566.4074      304.53878      119.30835      3840.7412      0.99696119
    204000  -1336.5714      218.71701     -1555.2884      287.74519     -752.87534      3840.7412      0.99696119
    205000  -1315.161       231.81555     -1546.9765      304.9777       615.63836      3840.7412      0.99696119
    206000  -1347.6394      214.96541     -1562.6048      282.80958     -1284.6647      3840.7412      0.99696119
    207000  -1290.6899      238.07117     -1528.761       313.20763     -141.44256      3840.7412      0.99696119
    208000  -1368.2228      223.27647     -1591.4993      293.74364     -1333.5283      3840.7412      0.99696119
    209000  -1330.6209      224.93163     -1555.5526      295.92118     -1716.4805      3840.7412      0.99696119
    210000  -1348.2367      224.19777     -1572.4345      294.9557       25.758699      3840.7412      0.99696119
    211000  -1337.1207      225.19368     -1562.3144      296.26593     -3726.7985      3840.7412      0.99696119
    212000  -1323.2064      246.86636     -1570.0728      324.77862     -989.6039       3840.7412      0.99696119
    213000  -1347.5959      209.92921     -1557.5251      276.18393     -733.89182      3840.7412      0.99696119
    214000  -1302.8366      248.16804     -1551.0046      326.49112     -359.35984      3840.7412      0.99696119
    215000  -1335.2216      209.74631     -1544.9679      275.9433      -757.05992      3840.7412      0.99696119
    216000  -1378.2204      218.30833     -1596.5287      287.20753     -244.01664      3840.7412      0.99696119
    217000  -1365.0726      214.58028     -1579.6529      282.30289      979.1765       3840.7412      0.99696119
    218000  -1351.579       230.97216     -1582.5512      303.86813      762.73839      3840.7412      0.99696119
    219000  -1374.4746      208.00456     -1582.4791      273.65185     -523.10182      3840.7412      0.99696119
    220000  -1347.9771      225.83073     -1573.8078      297.10404     -1129.5005      3840.7412      0.99696119
    221000  -1341.6095      220.82858     -1562.438       290.52318     -1159.8555      3840.7412      0.99696119
    222000  -1334.3841      214.16063     -1548.5447      281.7508       69.860266      3840.7412      0.99696119
    223000  -1326.1335      238.58869     -1564.7222      313.88847     -1698.0179      3840.7412      0.99696119
    224000  -1347.1692      213.63436     -1560.8036      281.05843      871.27456      3840.7412      0.99696119
    225000  -1356.8849      201.51459     -1558.3995      265.1136      -1304.3893      3840.7412      0.99696119
    226000  -1329.4453      213.08991     -1542.5352      280.34216      1120.9999      3840.7412      0.99696119
    227000  -1313.8611      232.11174     -1545.9728      305.36737     -743.04909      3840.7412      0.99696119
    228000  -1334.4704      218.31499     -1552.7854      287.21629      656.35082      3840.7412      0.99696119
    229000  -1351.9643      217.84621     -1569.8105      286.59956     -1555.0743      3840.7412      0.99696119
    230000  -1333.1783      233.42193     -1566.6002      307.09107      1466.2152      3840.7412      0.99696119
    231000  -1379.4407      211.87479     -1591.3155      278.74353     -1269.6384      3840.7412      0.99696119
    232000  -1344.8373      222.97707     -1567.8143      293.34975     -3256.9604      3840.7412      0.99696119
    233000  -1350.5014      219.35793     -1569.8593      288.58839     -1689.4866      3840.7412      0.99696119
    234000  -1355.7365      216.51181     -1572.2483      284.84402      1717.5854      3840.7412      0.99696119
    235000  -1296.2026      255.64437     -1551.8469      336.32701     -1390.6357      3840.7412      0.99696119
    236000  -1349.2975      207.05262     -1556.3501      272.39947      919.63369      3840.7412      0.99696119
    237000  -1307.6991      225.29986     -1532.9989      296.40563     -1820.2011      3840.7412      0.99696119
    238000  -1349.1898      215.31769     -1564.5075      283.27303     -788.65689      3840.7412      0.99696119
    239000  -1327.2569      228.07903     -1555.336       300.06192     -868.80382      3840.7412      0.99696119
    240000  -1312.8345      226.10256     -1538.937       297.46166     -1800.9846      3840.7412      0.99696119
    241000  -1354.5107      216.37341     -1570.8841      284.66194     -1799.9484      3840.7412      0.99696119
    242000  -1344.7405      246.821       -1591.5615      324.71894      576.09106      3840.7412      0.99696119
    243000  -1360.3869      218.10095     -1578.4878      286.93471     -425.35781      3840.7412      0.99696119
    244000  -1313.8513      248.86362     -1562.7149      327.40622      30.692082      3840.7412      0.99696119
    245000  -1341.3483      228.07601     -1569.4244      300.05795     -2289.3438      3840.7412      0.99696119
    246000  -1354.0472      230.8915      -1584.9386      303.76201     -457.24476      3840.7412      0.99696119
    247000  -1343.8112      218.61528     -1562.4264      287.61136      192.77693      3840.7412      0.99696119
    248000  -1368.6628      224.71112     -1593.3739      295.63107     -1367.4001      3840.7412      0.99696119
    249000  -1327.7371      229.80147     -1557.5386      302.32796     -720.49229      3840.7412      0.99696119
    250000  -1346.7775      211.75062     -1558.5281      278.58018     -134.749        3840.7412      0.99696119
    251000  -1344.7798      218.0369      -1562.8167      286.85044     -1046.8121      3840.7412      0.99696119
    252000  -1366.2425      214.22646     -1580.469       281.83741      522.64607      3840.7412      0.99696119
    253000  -1332.5158      231.01887     -1563.5347      303.92958     -516.68771      3840.7412      0.99696119
    254000  -1362.0314      214.63698     -1576.6684      282.37749      437.78031      3840.7412      0.99696119
    255000  -1331.6702      236.52378     -1568.194       311.17187     -166.8201       3840.7412      0.99696119
    256000  -1312.9425      229.56366     -1542.5062      302.01511      153.29079      3840.7412      0.99696119
    257000  -1295.0373      225.1227      -1520.16        296.17255      2922.0229      3840.7412      0.99696119
    258000  -1344.9606      217.48502     -1562.4456      286.12438     -465.66106      3840.7412      0.99696119
    259000  -1357.5588      198.6172      -1556.176       261.30178      505.26482      3840.7412      0.99696119
    260000  -1335.4463      220.07113     -1555.5174      289.52669      655.06099      3840.7412      0.99696119
    261000  -1358.3885      228.2697      -1586.6582      300.31277     -236.15703      3840.7412      0.99696119
    262000  -1324.1296      232.05205     -1556.1816      305.28884      177.38991      3840.7412      0.99696119
    263000  -1356.0621      222.18353     -1578.2456      292.30576      592.4686       3840.7412      0.99696119
    264000  -1322.1382      216.67587     -1538.8141      285.05986     -663.06231      3840.7412      0.99696119
    265000  -1289.3024      220.86772     -1510.1702      290.57468     -801.94401      3840.7412      0.99696119
    266000  -1340.3625      217.84728     -1558.2097      286.60098     -424.78535      3840.7412      0.99696119
    267000  -1319.2492      232.06615     -1551.3153      305.30739      39.152579      3840.7412      0.99696119
    268000  -1367.7822      212.23203     -1580.0143      279.21353     -1025.02        3840.7412      0.99696119
    269000  -1353.8837      224.82195     -1578.7056      295.77688     -627.06244      3840.7412      0.99696119
    270000  -1370.9963      218.37458     -1589.3709      287.29469     -434.42704      3840.7412      0.99696119
    271000  -1336.657       241.26807     -1577.925       317.41347      94.802692      3840.7412      0.99696119
    272000  -1344.6483      235.92905     -1580.5773      310.38943     -1824.3286      3840.7412      0.99696119
    273000  -1369.0801      206.19425     -1575.2744      271.27019      397.73386      3840.7412      0.99696119
    274000  -1340.257       235.60645     -1575.8635      309.96503     -676.66061      3840.7412      0.99696119
    275000  -1334.0991      223.36847     -1557.4675      293.86468      547.38299      3840.7412      0.99696119
    276000  -1347.5556      251.58744     -1599.143       330.98969      1346.3199      3840.7412      0.99696119
    277000  -1351.9505      224.42894     -1576.3795      295.25984      138.06443      3840.7412      0.99696119
    278000  -1314.7858      222.49705     -1537.2829      292.71824      488.77008      3840.7412      0.99696119
    279000  -1333.2443      206.0733      -1539.3175      271.11106      181.8263       3840.7412      0.99696119
    280000  -1334.291       243.8788      -1578.1698      320.84817     -530.36135      3840.7412      0.99696119
    281000  -1338.0942      239.6604      -1577.7546      315.29842      1929.8279      3840.7412      0.99696119
    282000  -1371.8123      219.37261     -1591.1849      288.6077      -154.36679      3840.7412      0.99696119
    283000  -1366.457       222.09918     -1588.5562      292.19479     -662.58126      3840.7412      0.99696119
    284000  -1333.2042      221.71391     -1554.9181      291.68792      377.18375      3840.7412      0.99696119
    285000  -1358.4013      231.60145     -1590.0027      304.69603      1215.6912      3840.7412      0.99696119
    286000  -1312.1723      244.75993     -1556.9322      322.00739      55.814905      3840.7412      0.99696119
    287000  -1366.1601      207.58486     -1573.7449      273.09968     -465.0027       3840.7412      0.99696119
    288000  -1340.517       243.51699     -1584.034       320.37218     -854.49363      3840.7412      0.99696119
    289000  -1304.4385      227.1329      -1531.5715      298.81718     -1137.7972      3840.7412      0.99696119
    290000  -1301.036       234.27678     -1535.3128      308.2157       635.02187      3840.7412      0.99696119
    291000  -1366.7722      219.13489     -1585.907       288.29496     -3099.803       3840.7412      0.99696119
    292000  -1352.6094      216.5305      -1569.1399      284.86862      340.3959       3840.7412      0.99696119
    293000  -1362.8654      215.65444     -1578.5198      283.71606      458.46997      3840.7412      0.99696119
    294000  -1318.1146      235.22345     -1553.338       309.46114      286.44354      3840.7412      0.99696119
    295000  -1349.674       218.43355     -1568.1076      287.37227     -360.30794      3840.7412      0.99696119
    296000  -1361.2664      212.00516     -1573.2716      278.91504      148.88817      3840.7412      0.99696119
    297000  -1350.8355      218.85035     -1569.6859      287.92062     -157.06424      3840.7412      0.99696119
    298000  -1331.6319      245.91617     -1577.5481      323.52855     -2356.961       3840.7412      0.99696119
    299000  -1367.4972      210.4146      -1577.9118      276.8225      -1854.5633      3840.7412      0.99696119
    300000  -1366.2891      208.81021     -1575.0993      274.71175     -1926.8115      3840.7412      0.99696119
    301000  -1342.7621      216.02742     -1558.7895      284.20675      976.12178      3840.7412      0.99696119
    302000  -1358.2836      222.53702     -1580.8207      292.77081     -1768.2319      3840.7412      0.99696119
    303000  -1355.8661      206.68132     -1562.5474      271.91099     -24.711703      3840.7412      0.99696119
    304000  -1353.2614      231.08391     -1584.3454      304.01514     -100.3942       3840.7412      0.99696119
    305000  -1352.2852      225.76199     -1578.0472      297.0136      -263.1867       3840.7412      0.99696119
    306000  -1370.0993      210.44491     -1580.5442      276.86238      781.38131      3840.7412      0.99696119
    307000  -1355.4595      214.69335     -1570.1528      282.45164     -1092.1173      3840.7412      0.99696119
    308000  -1338.3211      230.79229     -1569.1134      303.63149      232.87695      3840.7412      0.99696119
    309000  -1377.5692      227.63837     -1605.2076      299.48218      684.10867      3840.7412      0.99696119
    310000  -1351.9104      219.62547     -1571.5359      288.94037     -1031.3471      3840.7412      0.99696119
    311000  -1360.8811      230.13913     -1591.0203      302.77219     -906.45968      3840.7412      0.99696119
    312000  -1354.3493      227.8378      -1582.1871      299.74455     -1098.4145      3840.7412      0.99696119
    313000  -1347.8172      211.703       -1559.5202      278.51752     -1481.5835      3840.7412      0.99696119
    314000  -1354.1148      234.08079     -1588.1956      307.95786      317.02507      3840.7412      0.99696119
    315000  -1331.0541      223.63084     -1554.6849      294.20985     -40.82853       3840.7412      0.99696119
    316000  -1336.2592      228.06405     -1564.3233      300.04221     -1098.8983      3840.7412      0.99696119
    317000  -1346.2904      231.5231      -1577.8135      304.59296     -2162.0685      3840.7412      0.99696119
    318000  -1358.0544      218.2166      -1576.271       287.08686      968.91631      3840.7412      0.99696119
    319000  -1325.7509      236.13018     -1561.8811      310.65405      897.27695      3840.7412      0.99696119
    320000  -1312.8969      246.66364     -1559.5605      324.51192      629.67599      3840.7412      0.99696119
    321000  -1341.8714      232.83404     -1574.7054      306.31764     -12.441452      3840.7412      0.99696119
    322000  -1342.5162      213.65786     -1556.1741      281.08936      836.95857      3840.7412      0.99696119
    323000  -1357.4079      228.40172     -1585.8097      300.48645     -94.209577      3840.7412      0.99696119
    324000  -1321.0865      219.83761     -1540.9241      289.21946     -307.41993      3840.7412      0.99696119
    325000  -1320.3996      233.4685      -1553.8681      307.15233      1308.2717      3840.7412      0.99696119
    326000  -1325.4887      212.66068     -1538.1494      279.77746     -2021.1642      3840.7412      0.99696119
    327000  -1339.8235      227.3505      -1567.174       299.10346     -2028.0717      3840.7412      0.99696119
    328000  -1350.7007      224.20459     -1574.9053      294.96468     -385.87357      3840.7412      0.99696119
    329000  -1311.9671      219.98588     -1531.953       289.41452     -898.50516      3840.7412      0.99696119
    330000  -1324.6249      233.48371     -1558.1086      307.17233     -3426.3109      3840.7412      0.99696119
    331000  -1321.7389      231.55293     -1553.2918      304.6322       415.75789      3840.7412      0.99696119
    332000  -1338.1391      208.05466     -1546.1937      273.71775     -1982.3314      3840.7412      0.99696119
    333000  -1338.5487      213.41024     -1551.9589      280.76358     -1343.0898      3840.7412      0.99696119
    334000  -1322.3431      236.31412     -1558.6572      310.89604     -864.56245      3840.7412      0.99696119
    335000  -1325.7421      217.5245      -1543.2666      286.17633     -241.72689      3840.7412      0.99696119
    336000  -1319.8622      222.79674     -1542.659       293.11251     -1805.91        3840.7412      0.99696119
    337000  -1339.6241      212.65962     -1552.2837      279.77606     -2124.965       3840.7412      0.99696119
    338000  -1297.1279      243.44344     -1540.5713      320.27541      849.18075      3840.7412      0.99696119
    339000  -1314.9936      237.46662     -1552.4602      312.41227     -2152.2012      3840.7412      0.99696119
    340000  -1332.408       217.27927     -1549.6873      285.8537      -1251.3356      3840.7412      0.99696119
    341000  -1317.3465      228.71789     -1546.0644      300.9024      -2382.427       3840.7412      0.99696119
    342000  -1372.7295      208.15052     -1580.88        273.84386     -2053.5844      3840.7412      0.99696119
    343000  -1358.067       222.05061     -1580.1177      292.1309      -1962.3309      3840.7412      0.99696119
    344000  -1341.5762      221.10791     -1562.6841      290.89067     -2315.8141      3840.7412      0.99696119
    345000  -1336.0533      227.45203     -1563.5053      299.23702     -377.78057      3840.7412      0.99696119
    346000  -1341.348       220.50349     -1561.8515      290.0955      -545.66661      3840.7412      0.99696119
    347000  -1367.4127      207.03886     -1574.4515      272.38136     -188.48395      3840.7412      0.99696119
    348000  -1315.9682      228.16954     -1544.1377      300.18099     -1257.7976      3840.7412      0.99696119
    349000  -1360.0982      214.01753     -1574.1157      281.56253     -565.07499      3840.7412      0.99696119
    350000  -1340.1265      247.46723     -1587.5937      325.56912      120.33797      3840.7412      0.99696119
    351000  -1282.3054      247.2897      -1529.5951      325.33557     -555.11092      3840.7412      0.99696119
    352000  -1372.6214      207.21408     -1579.8355      272.61189     -1893.3977      3840.7412      0.99696119
    353000  -1330.1341      225.57403     -1555.7081      296.76632     -616.6197       3840.7412      0.99696119
    354000  -1331.4122      222.40322     -1553.8154      292.59479     -967.6463       3840.7412      0.99696119
    355000  -1373.246       205.50198     -1578.748       270.35943     -3508.2676      3840.7412      0.99696119
    356000  -1329.3086      225.8345      -1555.1432      297.109       -329.19606      3840.7412      0.99696119
    357000  -1325.7622      229.38867     -1555.1509      301.78489     -165.58513      3840.7412      0.99696119
    358000  -1332.0541      237.23959     -1569.2937      312.11359      434.06191      3840.7412      0.99696119
    359000  -1388.5114      209.32651     -1597.8379      275.391        923.33203      3840.7412      0.99696119
    360000  -1324.5587      234.81529     -1559.374       308.92417     -106.02829      3840.7412      0.99696119
    361000  -1315.9694      245.34128     -1561.3107      322.77222      1267.5796      3840.7412      0.99696119
    362000  -1316.503       217.16058     -1533.6635      285.69754     -649.37914      3840.7412      0.99696119
    363000  -1316.8937      237.29627     -1554.1899      312.18816     -462.08192      3840.7412      0.99696119
    364000  -1344.9516      216.60719     -1561.5588      284.9695      -1553.6363      3840.7412      0.99696119
    365000  -1343.5165      254.30386     -1597.8204      334.56343      42.329014      3840.7412      0.99696119
    366000  -1333.0481      237.02791     -1570.076       311.83511     -8.7684972      3840.7412      0.99696119
    367000  -1341.3293      222.2183      -1563.5476      292.35151     -1763.1128      3840.7412      0.99696119
    368000  -1374.106       213.30805     -1587.414       280.62913     -2267.8971      3840.7412      0.99696119
    369000  -1366.2701      207.96327     -1574.2334      273.59752     -38.553848      3840.7412      0.99696119
    370000  -1335.7794      236.64961     -1572.429       311.33741      408.32632      3840.7412      0.99696119
    371000  -1337.5599      224.36071     -1561.9207      295.17008     -570.59059      3840.7412      0.99696119
    372000  -1309.8685      236.14564     -1546.0142      310.67439     -1715.6138      3840.7412      0.99696119
    373000  -1326.0279      237.14429     -1563.1722      311.98821     -1433.2702      3840.7412      0.99696119
    374000  -1361.7478      216.54514     -1578.2929      284.88787     -1959.3165      3840.7412      0.99696119
    375000  -1349.6851      233.72535     -1583.4104      307.49024      2077.5892      3840.7412      0.99696119
    376000  -1320.1636      231.79974     -1551.9633      304.9569       648.23893      3840.7412      0.99696119
    377000  -1355.9871      230.86656     -1586.8537      303.7292       301.70922      3840.7412      0.99696119
    378000  -1372.9682      215.09896     -1588.0671      282.98527     -403.35517      3840.7412      0.99696119
    379000  -1354.9752      210.66083     -1565.636       277.14644     -279.84788      3840.7412      0.99696119
    380000  -1353.8441      216.59016     -1570.4342      284.9471      -693.66859      3840.7412      0.99696119
    381000  -1311.1483      242.67183     -1553.8201      319.26028     -1198.4706      3840.7412      0.99696119
    382000  -1341.2503      235.14137     -1576.3916      309.35317     -1858.4124      3840.7412      0.99696119
    383000  -1306.5102      248.97663     -1555.4868      327.5549      -2426.7786      3840.7412      0.99696119
    384000  -1330.7897      208.59153     -1539.3812      274.42406     -1862.2318      3840.7412      0.99696119
    385000  -1323.3075      226.12951     -1549.437       297.49712     -1286.7826      3840.7412      0.99696119
    386000  -1329.477       252.14325     -1581.6203      331.72092     -752.2113       3840.7412      0.99696119
    387000  -1345.4276      230.34179     -1575.7694      303.03881      717.95471      3840.7412      0.99696119
    388000  -1339.2737      234.58409     -1573.8578      308.62        -580.23589      3840.7412      0.99696119
    389000  -1290.3942      252.47775     -1542.8719      332.16099     -923.48501      3840.7412      0.99696119
    390000  -1328.2165      230.55229     -1558.7688      303.31575     -2456.9321      3840.7412      0.99696119
    391000  -1362.0596      224.92099     -1586.9806      295.90719     -983.74693      3840.7412      0.99696119
    392000  -1330.2431      248.77075     -1579.0138      327.28404      602.19051      3840.7412      0.99696119
    393000  -1345.6876      215.12965     -1560.8172      283.02565     -214.07634      3840.7412      0.99696119
    394000  -1384.3446      213.75963     -1598.1042      281.22324      690.97065      3840.7412      0.99696119
    395000  -1337.4231      209.50826     -1546.9313      275.63012     -302.04358      3840.7412      0.99696119
    396000  -1313.463       232.59008     -1546.0531      305.99667      324.2597       3840.7412      0.99696119
    397000  -1351.4154      221.43259     -1572.848       291.31782     -340.4416       3840.7412      0.99696119
    398000  -1300.8163      258.41469     -1559.231       339.97166     -516.25053      3840.7412      0.99696119
    399000  -1334.0569      233.51005     -1567.567       307.20699      628.73493      3840.7412      0.99696119
    400000  -1339.4737      220.55718     -1560.0309      290.16613     -2230.5218      3840.7412      0.99696119
    401000  -1349.2321      227.64504     -1576.8772      299.49096     -491.97367      3840.7412      0.99696119
    402000  -1368.2881      227.97709     -1596.2652      299.9278      -917.29074      3840.7412      0.99696119
    403000  -1350.4366      234.38342     -1584.82        308.356       -1112.9908      3840.7412      0.99696119
    404000  -1348.5922      227.76354     -1576.3557      299.64685     -826.25087      3840.7412      0.99696119
    405000  -1329.7123      237.63522     -1567.3475      312.63408     -1361.4219      3840.7412      0.99696119
    406000  -1284.0542      260.44162     -1544.4958      342.6383      -1547.3112      3840.7412      0.99696119
    407000  -1332.5312      224.42165     -1556.9528      295.25024     -2738.5128      3840.7412      0.99696119
    408000  -1374.4848      225.84105     -1600.3258      297.11762      184.53577      3840.7412      0.99696119
    409000  -1322.3108      215.28816     -1537.5989      283.23418     -865.87639      3840.7412      0.99696119
    410000  -1311.468       230.57986     -1542.0479      303.35202      128.25819      3840.7412      0.99696119
    411000  -1340.7992      232.89053     -1573.6897      306.39195      253.1065       3840.7412      0.99696119
    412000  -1366.9919      233.60506     -1600.597       307.33199     -782.08755      3840.7412      0.99696119
    413000  -1346.4193      228.23488     -1574.6542      300.26695     -753.59732      3840.7412      0.99696119
    414000  -1358.048       223.0829      -1581.1309      293.48898     -921.92559      3840.7412      0.99696119
    415000  -1360.4224      217.75923     -1578.1816      286.48514     -751.36904      3840.7412      0.99696119
    416000  -1365.6879      233.58042     -1599.2683      307.29957      1857.2585      3840.7412      0.99696119
    417000  -1345.6206      230.78734     -1576.408       303.62498      295.65984      3840.7412      0.99696119
    418000  -1306.5291      234.45022     -1540.9793      308.44388     -1155.5885      3840.7412      0.99696119
    419000  -1350.7051      225.98741     -1576.6925      297.31017      364.03585      3840.7412      0.99696119
    420000  -1320.3371      243.98304     -1564.3201      320.98531     -1715.5814      3840.7412      0.99696119
    421000  -1345.4696      221.02432     -1566.4939      290.78071     -3172.6724      3840.7412      0.99696119
    422000  -1382.4637      216.30479     -1598.7685      284.57167     -1219.008       3840.7412      0.99696119
    423000  -1368.8663      223.26555     -1592.1319      293.72927     -1148.0193      3840.7412      0.99696119
    424000  -1346.8114      224.0609      -1570.8723      294.77564      1410.517       3840.7412      0.99696119
    425000  -1306.6069      230.7231      -1537.33        303.54046     -530.08396      3840.7412      0.99696119
    426000  -1335.9655      242.18998     -1578.1554      318.62635     -3040.2475      3840.7412      0.99696119
    427000  -1362.7232      217.89763     -1580.6208      286.66721     -1335.1707      3840.7412      0.99696119
    428000  -1323.569       229.77103     -1553.34        302.28792     -227.28889      3840.7412      0.99696119
    429000  -1364.8659      207.88792     -1572.7538      273.49839     -911.32415      3840.7412      0.99696119
    430000  -1342.0068      236.15457     -1578.1614      310.68614     -1168.4186      3840.7412      0.99696119
    431000  -1336.8928      220.9033      -1557.7961      290.62149      111.24238      3840.7412      0.99696119
    432000  -1308.8678      236.58279     -1545.4506      311.24951      59.559142      3840.7412      0.99696119
    433000  -1336.2249      216.65638     -1552.8813      285.03422     -910.89042      3840.7412      0.99696119
    434000  -1367.6775      215.34833     -1583.0258      283.31334      460.03487      3840.7412      0.99696119
    435000  -1278.8648      252.89185     -1531.7566      332.70578      287.99561      3840.7412      0.99696119
    436000  -1332.365       218.14938     -1550.5144      286.99842     -2387.7303      3840.7412      0.99696119
    437000  -1292.396       243.49764     -1535.8936      320.34671      976.38515      3840.7412      0.99696119
    438000  -1336.6807      240.80781     -1577.4885      316.80797      235.94587      3840.7412      0.99696119
    439000  -1371.3151      214.67488     -1585.99        282.42734     -46.933844      3840.7412      0.99696119
    440000  -1356.5476      239.02434     -1595.5719      314.46162     -115.37707      3840.7412      0.99696119
    441000  -1382.1513      220.2082      -1602.3595      289.707       -3118.8519      3840.7412      0.99696119
    442000  -1334.5097      218.75151     -1553.2613      287.79059     -442.68369      3840.7412      0.99696119
    443000  -1346.7043      233.84799     -1580.5523      307.65158     -1954.3775      3840.7412      0.99696119
    444000  -1345.1307      216.23937     -1561.37        284.48559     -1143.1383      3840.7412      0.99696119
    445000  -1300.8398      253.68514     -1554.525       333.74944     -3089.0414      3840.7412      0.99696119
    446000  -1352.0023      219.81184     -1571.8141      289.18556     -2179.7149      3840.7412      0.99696119
    447000  -1334.3204      215.80397     -1550.1243      283.91278     -1331.387       3840.7412      0.99696119
    448000  -1340.6143      222.1629      -1562.7772      292.27862     -3208.6907      3840.7412      0.99696119
    449000  -1313.4277      240.32906     -1553.7568      316.17812     -332.89268      3840.7412      0.99696119
    450000  -1318.7644      233.77105     -1552.5354      307.55037      338.11915      3840.7412      0.99696119
    451000  -1378.5688      221.62047     -1600.1892      291.565       -2136.1928      3840.7412      0.99696119
    452000  -1316.6147      247.28659     -1563.9013      325.33147     -1956.9723      3840.7412      0.99696119
    453000  -1318.3362      231.93738     -1550.2735      305.13798     -1176.5271      3840.7412      0.99696119
    454000  -1355.7421      220.54291     -1576.285       290.14735     -189.52865      3840.7412      0.99696119
    455000  -1344.3298      220.99728     -1565.3271      290.74513     -387.4445       3840.7412      0.99696119
    456000  -1336.4374      228.04899     -1564.4864      300.02239     -299.06456      3840.7412      0.99696119
    457000  -1354.741       247.79911     -1602.5401      326.00575      1591.0169      3840.7412      0.99696119
    458000  -1381.5343      211.19106     -1592.7254      277.84401     -520.68941      3840.7412      0.99696119
    459000  -1306.7631      221.64811     -1528.4112      291.60136      1381.8612      3840.7412      0.99696119
    460000  -1296.7698      233.82759     -1530.5974      307.62475     -620.91149      3840.7412      0.99696119
    461000  -1337.4938      207.883       -1545.3768      273.49192     -1199.1939      3840.7412      0.99696119
    462000  -1313.6615      239.7466      -1553.4081      315.41182     -371.40811      3840.7412      0.99696119
    463000  -1321.5282      224.04394     -1545.5722      294.75333      437.62757      3840.7412      0.99696119
    464000  -1335.8286      224.1504      -1559.979       294.89339     -672.42277      3840.7412      0.99696119
    465000  -1310.4808      216.29001     -1526.7708      284.55222      1039.7581      3840.7412      0.99696119
    466000  -1338.3516      211.94716     -1550.2988      278.83875     -42.156149      3840.7412      0.99696119
    467000  -1340.8621      222.09076     -1562.9529      292.18372      348.41597      3840.7412      0.99696119
    468000  -1350.097       223.68546     -1573.7824      294.28171     -408.25711      3840.7412      0.99696119
    469000  -1353.6561      228.43756     -1582.0936      300.53359      1137.1422      3840.7412      0.99696119
    470000  -1375.5181      220.40823     -1595.9263      289.97017     -469.13168      3840.7412      0.99696119
    471000  -1329.0162      232.45549     -1561.4716      305.81961     -1771.8521      3840.7412      0.99696119
    472000  -1318.388       231.27815     -1549.6661      304.27069     -1073.1372      3840.7412      0.99696119
    473000  -1364.0592      230.79814     -1594.8573      303.63918     -1957.3279      3840.7412      0.99696119
    474000  -1316.957       227.95984     -1544.9169      299.90511      320.25579      3840.7412      0.99696119
    475000  -1277.8431      250.50424     -1528.3473      329.56463     -894.77591      3840.7412      0.99696119
    476000  -1371.7603      216.70989     -1588.4702      285.10462      563.08045      3840.7412      0.99696119
    477000  -1332.8069      212.99652     -1545.8034      280.21929     -1165.0797      3840.7412      0.99696119
    478000  -1384.9681      213.61502     -1598.5831      281.03298     -2201.254       3840.7412      0.99696119
    479000  -1339.6032      240.90566     -1580.5088      316.93669     -738.40257      3840.7412      0.99696119
    480000  -1395.8218      228.05766     -1623.8794      300.03379      988.8          3840.7412      0.99696119
    481000  -1365.6791      220.49995     -1586.1791      290.09083     -1167.7378      3840.7412      0.99696119
    482000  -1327.5787      233.58635     -1561.165       307.30737     -1209.3663      3840.7412      0.99696119
    483000  -1335.111       235.16979     -1570.2808      309.39056     -758.89796      3840.7412      0.99696119
    484000  -1358.0291      220.05651     -1578.0856      289.50745     -1237.5094      3840.7412      0.99696119
    485000  -1343.2126      238.03941     -1581.252       313.16584      22.079744      3840.7412      0.99696119
    486000  -1384.2423      215.19068     -1599.433       283.10594      1546.2818      3840.7412      0.99696119
    487000  -1360.937       220.53392     -1581.471       290.13553     -1752.7109      3840.7412      0.99696119
    488000  -1345.2703      230.50384     -1575.7742      303.252       -1523.0347      3840.7412      0.99696119
    489000  -1356.994       215.73498     -1572.729       283.82202     -1312.5599      3840.7412      0.99696119
    490000  -1336.3959      237.78447     -1574.1804      312.83044      959.30363      3840.7412      0.99696119
    491000  -1335.8626      226.26679     -1562.1294      297.67773     -559.02058      3840.7412      0.99696119
    492000  -1324.6516      227.97127     -1552.6229      299.92015     -362.40765      3840.7412      0.99696119
    493000  -1351.6665      211.25431     -1562.9208      277.92723     -1972.0739      3840.7412      0.99696119
    494000  -1350.5155      228.62036     -1579.1359      300.77409     -2170.0292      3840.7412      0.99696119
    495000  -1311.988       238.73758     -1550.7256      314.08435     -1264.0516      3840.7412      0.99696119
    496000  -1344.6032      212.42205     -1557.0252      279.46351     -116.70428      3840.7412      0.99696119
    497000  -1349.8257      223.47218     -1573.2979      294.00112     -1919.8183      3840.7412      0.99696119
    498000  -1320.5931      235.26409     -1555.8572      309.51461     -530.48776      3840.7412      0.99696119
    499000  -1360.1435      216.87605     -1577.0196      285.32322      892.17645      3840.7412      0.99696119
    500000  -1319.6695      233.86061     -1553.5301      307.66819     -332.39488      3840.7412      0.99696119
    501000  -1331.374       230.78872     -1562.1627      303.62679     -2029.7022      3840.7412      0.99696119
    502000  -1308.221       235.66171     -1543.8827      310.03773     -688.36526      3840.7412      0.99696119
    503000  -1344.6089      232.09618     -1576.7051      305.34689     -737.74912      3840.7412      0.99696119
    504000  -1336.4969      227.15299     -1563.6499      298.84361      0.84754217     3840.7412      0.99696119
    505000  -1331.9139      220.71188     -1552.6258      290.36965      740.14486      3840.7412      0.99696119
    506000  -1342.1891      217.9681      -1560.1572      286.75992     -622.59741      3840.7412      0.99696119
    507000  -1341.4563      222.1673      -1563.6236      292.28441     -726.34415      3840.7412      0.99696119
    508000  -1365.7543      222.76242     -1588.5168      293.06736      2683.1075      3840.7412      0.99696119
    509000  -1344.9679      227.22681     -1572.1947      298.94072      1161.9946      3840.7412      0.99696119
    510000  -1304.679       259.7329      -1564.4119      341.70591     -2320.3176      3840.7412      0.99696119
    511000  -1345.7607      221.35094     -1567.1116      291.2104      -1275.977       3840.7412      0.99696119
    512000  -1333.8592      225.37329     -1559.2325      296.50223     -1393.6971      3840.7412      0.99696119
    513000  -1320.2661      216.73698     -1537.0031      285.14025     -176.73179      3840.7412      0.99696119
    514000  -1367.8123      212.84945     -1580.6617      280.0258      -814.58944      3840.7412      0.99696119
    515000  -1353.7774      229.25741     -1583.0348      301.6122      -315.70632      3840.7412      0.99696119
    516000  -1289.5418      226.65391     -1516.1957      298.18702      1134.9502      3840.7412      0.99696119
    517000  -1343.7854      227.9611      -1571.7465      299.90676      1279.8133      3840.7412      0.99696119
    518000  -1336.2094      221.11892     -1557.3283      290.90516      1636.1964      3840.7412      0.99696119
    519000  -1344.2         210.10252     -1554.3025      276.41192      155.92078      3840.7412      0.99696119
    520000  -1306.4458      225.02316     -1531.469       296.0416      -600.49681      3840.7412      0.99696119
    521000  -1335.5139      233.41151     -1568.9254      307.07735      173.08342      3840.7412      0.99696119
    522000  -1393.7914      206.90105     -1600.6924      272.20006     -999.36376      3840.7412      0.99696119
    523000  -1288.3815      260.09183     -1548.4734      342.17811     -297.30453      3840.7412      0.99696119
    524000  -1311.4798      246.55193     -1558.0317      324.36495      1417.2615      3840.7412      0.99696119
    525000  -1314.2224      250.6506      -1564.873       329.75718     -232.89189      3840.7412      0.99696119
    526000  -1352.8861      214.14502     -1567.0311      281.73027      408.30629      3840.7412      0.99696119
    527000  -1327.5334      219.27492     -1546.8083      288.47919     -904.59575      3840.7412      0.99696119
    528000  -1359.6375      201.35305     -1560.9906      264.90108     -1952.7507      3840.7412      0.99696119
    529000  -1311.0638      236.90034     -1547.9641      311.66728     -844.07346      3840.7412      0.99696119
    530000  -1324.7096      221.02214     -1545.7318      290.77784     -150.81405      3840.7412      0.99696119
    531000  -1365.8659      223.17797     -1589.0438      293.61406     -724.68216      3840.7412      0.99696119
    532000  -1321.3036      233.45419     -1554.7578      307.1335       1051.1673      3840.7412      0.99696119
    533000  -1342.9371      206.4014      -1549.3385      271.54272      134.39725      3840.7412      0.99696119
    534000  -1339.5113      223.87287     -1563.3842      294.52827      996.9094       3840.7412      0.99696119
    535000  -1352.4652      226.9996      -1579.4648      298.6418      -805.37468      3840.7412      0.99696119
    536000  -1347.2015      206.69786     -1553.8994      271.93274      170.67539      3840.7412      0.99696119
    537000  -1352.7939      221.64168     -1574.4356      291.59291      894.06839      3840.7412      0.99696119
    538000  -1322.7392      241.41729     -1564.1565      317.60979      1053.3938      3840.7412      0.99696119
    539000  -1342.9151      240.03692     -1582.952       315.79378     -94.787349      3840.7412      0.99696119
    540000  -1345.2957      213.37204     -1558.6677      280.71333     -196.48461      3840.7412      0.99696119
    541000  -1316.9186      225.9091      -1542.8277      297.20714     -1188.9984      3840.7412      0.99696119
    542000  -1330.2194      222.11122     -1552.3306      292.21063     -311.29748      3840.7412      0.99696119
    543000  -1313.6733      225.05292     -1538.7262      296.08075      72.28913       3840.7412      0.99696119
    544000  -1320.378       237.20345     -1557.5814      312.06604     -736.711        3840.7412      0.99696119
    545000  -1297.4173      233.48803     -1530.9054      307.17802      862.31082      3840.7412      0.99696119
    546000  -1337.176       221.90906     -1559.085       291.94467     -682.92945      3840.7412      0.99696119
    547000  -1357.4149      228.34033     -1585.7553      300.40568     -3008.129       3840.7412      0.99696119
    548000  -1348.0342      229.45656     -1577.4908      301.8742      -320.04446      3840.7412      0.99696119
    549000  -1334.3424      243.63769     -1577.9801      320.53096      748.35926      3840.7412      0.99696119
    550000  -1371.9275      223.1669      -1595.0944      293.59949     -1141.7347      3840.7412      0.99696119
    551000  -1333.7568      226.04092     -1559.7977      297.38056      479.86201      3840.7412      0.99696119
    552000  -1324.6866      229.92655     -1554.6131      302.49252      132.80087      3840.7412      0.99696119
    553000  -1342.1217      210.02927     -1552.151       276.31555     -1304.8449      3840.7412      0.99696119
    554000  -1338.024       228.71143     -1566.7354      300.89391     -371.33755      3840.7412      0.99696119
    555000  -1342.8726      237.01715     -1579.8897      311.82095     -621.72303      3840.7412      0.99696119
    556000  -1348.8623      222.94819     -1571.8105      293.31176     -1845.1324      3840.7412      0.99696119
    557000  -1363.7177      226.59155     -1590.3093      298.10498     -553.65481      3840.7412      0.99696119
    558000  -1309.5632      234.64031     -1544.2035      308.69397     -1517.7388      3840.7412      0.99696119
    559000  -1342.4382      222.37571     -1564.8139      292.55859     -885.75579      3840.7412      0.99696119
    560000  -1351.0416      233.87981     -1584.9214      307.69345     -1232.5138      3840.7412      0.99696119
    561000  -1343.1794      216.0337      -1559.2131      284.21502     -250.01348      3840.7412      0.99696119
    562000  -1350.2989      231.24529     -1581.5442      304.22746     -1359.0958      3840.7412      0.99696119
    563000  -1333.7855      223.90957     -1557.6951      294.57656     -473.73462      3840.7412      0.99696119
    564000  -1359.3155      212.4552      -1571.7707      279.50713      3243.5097      3840.7412      0.99696119
    565000  -1388.0889      210.79556     -1598.8844      277.3237       1114.8842      3840.7412      0.99696119
    566000  -1339.9874      250.37316     -1590.3606      329.39218     -614.08965      3840.7412      0.99696119
    567000  -1314.8861      252.18892     -1567.075       331.78101     -1087.6821      3840.7412      0.99696119
    568000  -1385.3688      188.8957      -1574.2645      248.51213     -92.926655      3840.7412      0.99696119
    569000  -1337.4648      230.39987     -1567.8647      303.11522      308.7613       3840.7412      0.99696119
    570000  -1320.6469      232.03285     -1552.6798      305.26358     -616.18954      3840.7412      0.99696119
    571000  -1360.5442      213.80576     -1574.3499      281.28393     -387.63211      3840.7412      0.99696119
    572000  -1315.8891      239.9598      -1555.8489      315.69231     -473.41784      3840.7412      0.99696119
    573000  -1355.5462      218.94848     -1574.4946      288.04972      26.612908      3840.7412      0.99696119
    574000  -1295.877       254.97288     -1550.8499      335.4436       277.38094      3840.7412      0.99696119
    575000  -1332.2381      232.97973     -1565.2179      306.5093      -1914.849       3840.7412      0.99696119
    576000  -1345.3824      228.71712     -1574.0995      300.90138      1254.444       3840.7412      0.99696119
    577000  -1326.5662      225.60761     -1552.1738      296.8105      -1384.0824      3840.7412      0.99696119
    578000  -1320.776       233.82575     -1554.6017      307.62233     -608.07563      3840.7412      0.99696119
    579000  -1339.5074      232.31554     -1571.8229      305.63549     -391.79162      3840.7412      0.99696119
    580000  -1324.3152      232.31662     -1556.6318      305.63691      920.71243      3840.7412      0.99696119
    581000  -1342.0868      219.4128      -1561.4996      288.66057     -114.09578      3840.7412      0.99696119
    582000  -1306.3138      238.25158     -1544.5654      313.44497      1390.7124      3840.7412      0.99696119
    583000  -1341.0274      230.4221      -1571.4495      303.14447      352.66635      3840.7412      0.99696119
    584000  -1348.2008      225.70278     -1573.9036      296.93571      737.67333      3840.7412      0.99696119
    585000  -1331.8032      226.89491     -1558.6981      298.50409     -2782.192       3840.7412      0.99696119
    586000  -1332.2584      224.23228     -1556.4907      295.00112     -1605.903       3840.7412      0.99696119
    587000  -1339.645       222.11543     -1561.7604      292.21617     -3160.7685      3840.7412      0.99696119
    588000  -1335.5854      233.98037     -1569.5658      307.82575     -240.18337      3840.7412      0.99696119
    589000  -1348.6725      204.18357     -1552.8561      268.62492      205.32368      3840.7412      0.99696119
    590000  -1315.5269      243.37007     -1558.8969      320.17888     -679.84584      3840.7412      0.99696119
    591000  -1357.8469      229.78722     -1587.6342      302.30921     -11.207781      3840.7412      0.99696119
    592000  -1339.2385      244.86192     -1584.1004      322.14156      136.66325      3840.7412      0.99696119
    593000  -1354.0083      226.76661     -1580.7749      298.33529     -676.03141      3840.7412      0.99696119
    594000  -1357.1786      218.11028     -1575.2889      286.94697     -1172.7592      3840.7412      0.99696119
    595000  -1336.6407      233.98821     -1570.6289      307.83606     -1610.9302      3840.7412      0.99696119
    596000  -1297.4041      252.22308     -1549.6272      331.82595     -114.72805      3840.7412      0.99696119
    597000  -1335.5529      222.73982     -1558.2927      293.03762     -203.38278      3840.7412      0.99696119
    598000  -1324.0575      233.3987      -1557.4562      307.0605      -752.48475      3840.7412      0.99696119
    599000  -1342.4225      211.68955     -1554.1121      278.49983     -1815.304       3840.7412      0.99696119
    600000  -1320.0069      235.48635     -1555.4932      309.80702     -682.26113      3840.7412      0.99696119
    601000  -1333.1447      228.69285     -1561.8376      300.86945     -569.13664      3840.7412      0.99696119
    602000  -1303.6231      246.55843     -1550.1815      324.37351     -1241.6654      3840.7412      0.99696119
    603000  -1327.7002      216.62882     -1544.329       284.99796     -1695.0232      3840.7412      0.99696119
    604000  -1351.0381      220.43583     -1571.474       290.00649      291.40288      3840.7412      0.99696119
    605000  -1338.9129      199.63599     -1538.5489      262.64211     -1772.6432      3840.7412      0.99696119
    606000  -1346.1343      232.3936      -1578.5279      305.73818     -875.29237      3840.7412      0.99696119
    607000  -1312.1749      247.22401     -1559.3989      325.24914      10.617431      3840.7412      0.99696119
    608000  -1312.5058      226.65442     -1539.1602      298.18769     -1214.0492      3840.7412      0.99696119
    609000  -1365.4453      217.75205     -1583.1974      286.47569     -2250.0945      3840.7412      0.99696119
    610000  -1325.5682      236.28349     -1561.8517      310.85575     -1124.4534      3840.7412      0.99696119
    611000  -1363.4278      218.02306     -1581.4508      286.83224      543.15835      3840.7412      0.99696119
    612000  -1326.2859      252.13367     -1578.4196      331.70832     -342.13886      3840.7412      0.99696119
    613000  -1360.7999      218.27383     -1579.0737      287.16215     -2481.2763      3840.7412      0.99696119
    614000  -1341.3138      234.06859     -1575.3824      307.94181      569.63275      3840.7412      0.99696119
    615000  -1345.4726      229.20413     -1574.6767      301.5421      -614.05636      3840.7412      0.99696119
    616000  -1345.3916      208.20999     -1553.6016      273.9221       1722.1314      3840.7412      0.99696119
    617000  -1333.4507      218.2087      -1551.6594      287.07646     -906.03622      3840.7412      0.99696119
    618000  -1338.0514      228.65077     -1566.7022      300.81409      27.856692      3840.7412      0.99696119
    619000  -1332.0228      224.19767     -1556.2204      294.95557      269.81246      3840.7412      0.99696119
    620000  -1354.9541      215.92252     -1570.8766      284.06875      1240.7115      3840.7412      0.99696119
    621000  -1316.7359      234.671       -1551.4069      308.73434     -922.02436      3840.7412      0.99696119
    622000  -1330.7806      225.39421     -1556.1748      296.52975      71.884037      3840.7412      0.99696119
    623000  -1309.9065      214.95587     -1524.8623      282.79702      2462.5256      3840.7412      0.99696119
    624000  -1351.5412      191.91941     -1543.4607      252.49014     -1315.8358      3840.7412      0.99696119
    625000  -1353.7102      196.43147     -1550.1416      258.42622     -138.4795       3840.7412      0.99696119
    626000  -1339.4841      249.73921     -1589.2234      328.55815     -562.7294       3840.7412      0.99696119
    627000  -1366.827       215.28329     -1582.1103      283.22777     -546.85218      3840.7412      0.99696119
    628000  -1351.4854      222.08916     -1573.5746      292.18161      90.402611      3840.7412      0.99696119
    629000  -1343.3883      224.15225     -1567.5406      294.89582     -978.98056      3840.7412      0.99696119
    630000  -1342.1184      230.90439     -1573.0228      303.77897     -611.62059      3840.7412      0.99696119
    631000  -1319.2993      240.33868     -1559.638       316.19077      549.52462      3840.7412      0.99696119
    632000  -1314.4219      241.47849     -1555.9004      317.69031     -380.1925       3840.7412      0.99696119
    633000  -1378.9008      211.78131     -1590.6821      278.62056     -92.892674      3840.7412      0.99696119
    634000  -1351.3148      219.25623     -1570.5711      288.4546      -1228.7832      3840.7412      0.99696119
    635000  -1323.2281      233.26631     -1556.4944      306.88632     -899.8653       3840.7412      0.99696119
    636000  -1311.5395      208.17854     -1519.718       273.88073      571.65689      3840.7412      0.99696119
    637000  -1327.2777      229.62881     -1556.9065      302.10082     -630.89947      3840.7412      0.99696119
    638000  -1324.5962      230.55228     -1555.1484      303.31573      400.84323      3840.7412      0.99696119
    639000  -1354.0988      226.75101     -1580.8498      298.31476     -970.06637      3840.7412      0.99696119
    640000  -1318.2299      222.53469     -1540.7646      292.76775      472.10678      3840.7412      0.99696119
    641000  -1322.522       220.96045     -1543.4824      290.69668     -1238.0941      3840.7412      0.99696119
    642000  -1352.3684      215.56743     -1567.9358      283.60159     -1433.5329      3840.7412      0.99696119
    643000  -1352.3881      236.21288     -1588.6009      310.76285     -274.72419      3840.7412      0.99696119
    644000  -1364.4266      214.86447     -1579.2911      282.67678      516.99065      3840.7412      0.99696119
    645000  -1393.0324      211.95082     -1604.9832      278.84356      516.56267      3840.7412      0.99696119
    646000  -1295.5927      252.64055     -1548.2332      332.37518      1643.1587      3840.7412      0.99696119
    647000  -1322.2219      222.89735     -1545.1193      293.24487      40.13435       3840.7412      0.99696119
    648000  -1338.2053      224.24682     -1562.4521      295.02024     -801.46586      3840.7412      0.99696119
    649000  -1357.7899      223.8114      -1581.6012      294.44739     -995.13293      3840.7412      0.99696119
    650000  -1354.1417      219.40257     -1573.5443      288.64711      70.863084      3840.7412      0.99696119
[...]
   2842000  -1349.5228      222.55601     -1572.0788      292.7958      -39.151005      3840.7412      0.99696119
   2843000  -1371.1804      216.2562      -1587.4366      284.50775      654.16241      3840.7412      0.99696119
   2844000  -1337.2284      233.39228     -1570.6206      307.05205     -1269.8833      3840.7412      0.99696119
   2845000  -1378.889       212.03108     -1590.9201      278.94915      634.78891      3840.7412      0.99696119
   2846000  -1354.7691      218.14579     -1572.9149      286.99369      853.81614      3840.7412      0.99696119
   2847000  -1319.3571      226.3788      -1545.7359      297.82508      113.5442       3840.7412      0.99696119
   2848000  -1362.4892      211.22005     -1573.7093      277.88216     -385.19017      3840.7412      0.99696119
   2849000  -1346.8755      235.07788     -1581.9533      309.26964     -1216.8144      3840.7412      0.99696119
   2850000  -1356.7223      229.34585     -1586.0682      301.72855      1118.7895      3840.7412      0.99696119
   2851000  -1363.9939      205.3662      -1569.3601      270.1808       485.50077      3840.7412      0.99696119
   2852000  -1378.903       198.69683     -1577.5998      261.40654      1216.8677      3840.7412      0.99696119
   2853000  -1327.3446      223.92273     -1551.2673      294.59386      1392.7088      3840.7412      0.99696119
   2854000  -1335.7391      223.60289     -1559.342       294.17308      397.4049       3840.7412      0.99696119
   2855000  -1364.3626      217.9075      -1582.2701      286.6802       756.33157      3840.7412      0.99696119
   2856000  -1382.0243      228.03885     -1610.0632      300.00905      363.99835      3840.7412      0.99696119
   2857000  -1368.7885      227.26139     -1596.0499      298.98623     -405.39437      3840.7412      0.99696119
   2858000  -1375.1915      214.70118     -1589.8927      282.46195     -337.03111      3840.7412      0.99696119
   2859000  -1356.7101      229.31987     -1586.03        301.69436     -1672.9644      3840.7412      0.99696119
   2860000  -1372.6918      218.52504     -1591.2168      287.49264     -1261.5985      3840.7412      0.99696119
   2861000  -1364.6293      222.52861     -1587.1579      292.75976     -236.05013      3840.7412      0.99696119
   2862000  -1354.8723      222.64582     -1577.5182      292.91395     -1290.7343      3840.7412      0.99696119
   2863000  -1337.6212      234.47393     -1572.0951      308.47507     -1891.4877      3840.7412      0.99696119
   2864000  -1331.1112      227.99484     -1559.106       299.95115     -1272.1985      3840.7412      0.99696119
   2865000  -1334.4196      219.4925      -1553.9121      288.76543     -2023.1796      3840.7412      0.99696119
   2866000  -1355.6283      224.85994     -1580.4882      295.82686     -551.72893      3840.7412      0.99696119
   2867000  -1333.0204      239.78447     -1572.8049      315.46165     -1430.7243      3840.7412      0.99696119
   2868000  -1324.7929      219.34286     -1544.1357      288.56856      1136.7496      3840.7412      0.99696119
   2869000  -1360.654       221.17617     -1581.8301      290.98048     -2322.2729      3840.7412      0.99696119
   2870000  -1359.6775      233.34365     -1593.0212      306.98807     -1169.8417      3840.7412      0.99696119
   2871000  -1374.836       227.7856      -1602.6216      299.67588     -1598.0716      3840.7412      0.99696119
   2872000  -1379.6603      236.97321     -1616.6335      311.76314      1222.237       3840.7412      0.99696119
   2873000  -1338.3914      233.24859     -1571.64        306.86301     -1066.037       3840.7412      0.99696119
   2874000  -1345.4164      242.38411     -1587.8005      318.88175     -722.04616      3840.7412      0.99696119
   2875000  -1318.3569      230.53164     -1548.8886      303.28858      2808.2513      3840.7412      0.99696119
   2876000  -1372.2849      215.60004     -1587.885       283.6445       949.05884      3840.7412      0.99696119
   2877000  -1304.3251      265.37281     -1569.6979      349.1258      -119.77447      3840.7412      0.99696119
   2878000  -1347.722       228.31548     -1576.0375      300.37298     -747.7312       3840.7412      0.99696119
   2879000  -1338.1257      222.27918     -1560.4049      292.43161     -1817.5045      3840.7412      0.99696119
   2880000  -1355.0268      217.48194     -1572.5088      286.12033     -1753.336       3840.7412      0.99696119
   2881000  -1335.3987      220.49405     -1555.8928      290.08308     -156.24504      3840.7412      0.99696119
   2882000  -1369.8124      212.38857     -1582.201       279.41947     -266.6895       3840.7412      0.99696119
   2883000  -1351.3382      217.15659     -1568.4948      285.6923       616.50892      3840.7412      0.99696119
   2884000  -1354.8836      237.81586     -1592.6995      312.87174     -624.38282      3840.7412      0.99696119
   2885000  -1353.2371      224.5848      -1577.8219      295.46488     -145.95159      3840.7412      0.99696119
   2886000  -1338.4124      215.72737     -1554.1398      283.812        1187.451       3840.7412      0.99696119
   2887000  -1353.7571      210.97325     -1564.7304      277.55746     -1078.1868      3840.7412      0.99696119
   2888000  -1347.5865      215.54042     -1563.1269      283.56606     -1045.8617      3840.7412      0.99696119
   2889000  -1363.6597      211.91049     -1575.5701      278.7905       689.80658      3840.7412      0.99696119
   2890000  -1357.4841      235.748       -1593.2321      310.15125     -1204.1409      3840.7412      0.99696119
   2891000  -1337.3581      225.90566     -1563.2638      297.20262      898.45441      3840.7412      0.99696119
   2892000  -1354.9112      223.71375     -1578.625       294.31893     -173.40588      3840.7412      0.99696119
   2893000  -1327.5386      229.54111     -1557.0797      301.98543      635.35197      3840.7412      0.99696119
   2894000  -1345.6085      215.02251     -1560.631       282.88469     -801.87976      3840.7412      0.99696119
   2895000  -1357.5042      217.72875     -1575.233       286.44503     -894.58341      3840.7412      0.99696119
   2896000  -1342.8505      235.11379     -1577.9643      309.31688     -1235.9333      3840.7412      0.99696119
   2897000  -1318.8192      231.30709     -1550.1263      304.30877     -2776.5553      3840.7412      0.99696119
   2898000  -1336.8601      223.66051     -1560.5206      294.24888     -1408.3133      3840.7412      0.99696119
   2899000  -1312.2991      226.76736     -1539.0665      298.33627     -1635.8628      3840.7412      0.99696119
   2900000  -1332.6379      231.30126     -1563.9391      304.30109     -1395.9898      3840.7412      0.99696119
   2901000  -1391.9211      209.67628     -1601.5973      275.85117      521.35001      3840.7412      0.99696119
   2902000  -1338.3448      234.79304     -1573.1379      308.8949      -987.54231      3840.7412      0.99696119
   2903000  -1309.1621      235.25036     -1544.4124      309.49655     -1922.3781      3840.7412      0.99696119
   2904000  -1339.7666      227.00036     -1566.7669      298.6428      -1395.2097      3840.7412      0.99696119
   2905000  -1349.8803      235.76345     -1585.6438      310.17158     -193.21118      3840.7412      0.99696119
   2906000  -1301.9155      242.50829     -1544.4238      319.04512      67.879548      3840.7412      0.99696119
   2907000  -1328.515       227.66544     -1556.1804      299.51779      178.37986      3840.7412      0.99696119
   2908000  -1352.4048      210.73465     -1563.1395      277.24357      1217.5121      3840.7412      0.99696119
   2909000  -1327.7072      231.44828     -1559.1555      304.49452     -1880.4306      3840.7412      0.99696119
   2910000  -1333.7272      231.64085     -1565.3681      304.74786     -3067.7949      3840.7412      0.99696119
   2911000  -1326.6611      223.02612     -1549.6873      293.41428      21.991063      3840.7412      0.99696119
   2912000  -1331.038       216.81277     -1547.8508      285.23997      1278.2773      3840.7412      0.99696119
   2913000  -1309.652       233.40847     -1543.0605      307.07335     -223.04421      3840.7412      0.99696119
   2914000  -1294.6919      252.37282     -1547.0647      332.02294     -191.71515      3840.7412      0.99696119
   2915000  -1320.8709      238.89408     -1559.7649      314.29024     -1381.8556      3840.7412      0.99696119
   2916000  -1377.6209      219.36243     -1596.9834      288.59431     -814.92064      3840.7412      0.99696119
   2917000  -1336.503       235.27808     -1571.7811      309.53302     -1026.1332      3840.7412      0.99696119
   2918000  -1335.0404      222.7259      -1557.7663      293.01931     -568.71132      3840.7412      0.99696119
   2919000  -1338.4952      219.28632     -1557.7815      288.49418     -693.90926      3840.7412      0.99696119
   2920000  -1358.93        216.24583     -1575.1759      284.49409     -637.43705      3840.7412      0.99696119
   2921000  -1328.4854      227.62337     -1556.1087      299.46245     -547.11002      3840.7412      0.99696119
   2922000  -1318.2239      222.39618     -1540.6201      292.58553      631.10825      3840.7412      0.99696119
   2923000  -1334.1232      220.47855     -1554.6018      290.06268     -790.37472      3840.7412      0.99696119
   2924000  -1340.9642      219.65969     -1560.6239      288.98538     -3352.7595      3840.7412      0.99696119
   2925000  -1370.3644      197.95207     -1568.3165      260.42674     -193.88488      3840.7412      0.99696119
   2926000  -1342.893       220.71727     -1563.6103      290.37675      23.611494      3840.7412      0.99696119
   2927000  -1349.5709      219.73775     -1569.3087      289.08808     -1747.3494      3840.7412      0.99696119
   2928000  -1387.2602      215.409       -1602.6692      283.39316      355.21149      3840.7412      0.99696119
   2929000  -1400.8215      207.13735     -1607.9589      272.51093     -463.52534      3840.7412      0.99696119
   2930000  -1361.4183      226.42636     -1587.8447      297.88766     -2636.4709      3840.7412      0.99696119
   2931000  -1364.1032      225.33418     -1589.4374      296.45078     -866.41558      3840.7412      0.99696119
   2932000  -1349.0265      227.38072     -1576.4072      299.14321     -1409.0097      3840.7412      0.99696119
   2933000  -1332.3434      203.9052      -1536.2486      268.2587      -1087.3493      3840.7412      0.99696119
   2934000  -1357.0644      228.60991     -1585.6743      300.76034      57.408311      3840.7412      0.99696119
   2935000  -1362.3831      234.18048     -1596.5635      308.08901     -1202.4059      3840.7412      0.99696119
   2936000  -1369.3952      229.56508     -1598.9603      302.01697      108.20762      3840.7412      0.99696119
   2937000  -1360.1814      216.23705     -1576.4184      284.48255     -1896.1792      3840.7412      0.99696119
   2938000  -1315.546       247.02918     -1562.5752      324.99282     -730.38337      3840.7412      0.99696119
   2939000  -1334.8893      246.11281     -1581.0021      323.78725     -667.61659      3840.7412      0.99696119
   2940000  -1335.8236      240.58657     -1576.4102      316.51689     -1041.5701      3840.7412      0.99696119
   2941000  -1324.6331      213.07305     -1537.7061      280.31997     -1081.9628      3840.7412      0.99696119
   2942000  -1320.1408      237.15981     -1557.3007      312.00864     -520.12044      3840.7412      0.99696119
   2943000  -1337.9233      236.61288     -1574.5362      311.28909      1480.9111      3840.7412      0.99696119
   2944000  -1365.4878      211.92442     -1577.4122      278.80883     -952.21056      3840.7412      0.99696119
   2945000  -1313.5726      220.36427     -1533.9369      289.91234     -1244.5861      3840.7412      0.99696119
   2946000  -1314.0495      235.70328     -1549.7528      310.09241     -260.74673      3840.7412      0.99696119
   2947000  -1356.2346      209.67535     -1565.9099      275.84994      487.39532      3840.7412      0.99696119
   2948000  -1347.5233      234.56479     -1582.0881      308.59461     -1437.3275      3840.7412      0.99696119
   2949000  -1375.39        213.84464     -1589.2346      281.33508      390.12992      3840.7412      0.99696119
   2950000  -1382.6281      204.78693     -1587.415       269.41871      1025.9556      3840.7412      0.99696119
   2951000  -1378.8418      211.23887     -1590.0807      277.90692     -655.44002      3840.7412      0.99696119
   2952000  -1342.0495      222.71374     -1564.7633      293.00332      495.74845      3840.7412      0.99696119
   2953000  -1342.7814      222.37183     -1565.1532      292.55349     -969.84016      3840.7412      0.99696119
   2954000  -1379.8733      222.30287     -1602.1761      292.46277     -1504.7953      3840.7412      0.99696119
   2955000  -1360.9712      211.32894     -1572.3001      278.02541     -1164.825       3840.7412      0.99696119
   2956000  -1309.6655      240.93026     -1550.5957      316.96906     -174.47421      3840.7412      0.99696119
   2957000  -1336.6279      225.35201     -1561.9799      296.47423     -799.23919      3840.7412      0.99696119
   2958000  -1300.4821      240.85737     -1541.3395      316.87317     -4089.4059      3840.7412      0.99696119
   2959000  -1330.1308      229.21597     -1559.3468      301.55768     -1854.0827      3840.7412      0.99696119
   2960000  -1325.514       209.80141     -1535.3154      276.01578     -2005.6493      3840.7412      0.99696119
   2961000  -1375.1013      210.37675     -1585.4781      276.77271     -1122.2529      3840.7412      0.99696119
   2962000  -1359.7673      209.7206      -1569.4879      275.90948     -2360.5328      3840.7412      0.99696119
   2963000  -1318.0605      243.92329     -1561.9838      320.9067      -939.63241      3840.7412      0.99696119
   2964000  -1349.7766      212.81233     -1562.589       279.97696     -1034.6189      3840.7412      0.99696119
   2965000  -1365.8802      221.35329     -1587.2335      291.2135       1580.4653      3840.7412      0.99696119
   2966000  -1379.2355      206.4249      -1585.6604      271.57363     -1144.2161      3840.7412      0.99696119
   2967000  -1365.5655      231.7898      -1597.3553      304.94383      440.50178      3840.7412      0.99696119
   2968000  -1394.4994      221.55783     -1616.0572      291.48259     -2133.4072      3840.7412      0.99696119
   2969000  -1326.2336      231.81713     -1558.0507      304.97978      614.54035      3840.7412      0.99696119
   2970000  -1344.5149      213.93798     -1558.4529      281.45788      1004.612       3840.7412      0.99696119
   2971000  -1362.3658      244.05619     -1606.422       321.08154     -1379.178       3840.7412      0.99696119
   2972000  -1367.2014      232.50182     -1599.7032      305.88056      1191.9422      3840.7412      0.99696119
   2973000  -1378.3611      220.71556     -1599.0767      290.3745      -600.87635      3840.7412      0.99696119
   2974000  -1352.7534      223.30439     -1576.0578      293.78037     -1801.2521      3840.7412      0.99696119
   2975000  -1326.997       227.96154     -1554.9585      299.90735     -1362.9604      3840.7412      0.99696119
   2976000  -1311.0171      233.43318     -1544.4502      307.10586     -429.60973      3840.7412      0.99696119
   2977000  -1323.6595      207.66062     -1531.3201      273.19935      14.034959      3840.7412      0.99696119
   2978000  -1330.5491      222.88583     -1553.4349      293.22972     -2270.5764      3840.7412      0.99696119
   2979000  -1333.6376      248.29745     -1581.935       326.66137     -860.86267      3840.7412      0.99696119
   2980000  -1388.5636      214.53454     -1603.0981      282.24272     -2609.076       3840.7412      0.99696119
   2981000  -1361.8079      207.79223     -1569.6001      273.37249     -1689.0078      3840.7412      0.99696119
   2982000  -1364.5346      219.38425     -1583.9189      288.62302     -93.548371      3840.7412      0.99696119
   2983000  -1336.0187      244.9171      -1580.9358      322.21416     -763.13442      3840.7412      0.99696119
   2984000  -1378.5824      214.20558     -1592.788       281.80993     -1978.6636      3840.7412      0.99696119
   2985000  -1335.2722      222.03648     -1557.3086      292.1123      -1606.2449      3840.7412      0.99696119
   2986000  -1325.3315      209.34546     -1534.677       275.41594     -1724.8181      3840.7412      0.99696119
   2987000  -1318.1465      223.74516     -1541.8917      294.36025     -1601.0067      3840.7412      0.99696119
   2988000  -1329.8805      225.37981     -1555.2603      296.51081      1982.5855      3840.7412      0.99696119
   2989000  -1373.2998      199.15457     -1572.4544      262.00874     -2399.39        3840.7412      0.99696119
   2990000  -1338.5194      232.4057      -1570.9251      305.7541      -1307.692       3840.7412      0.99696119
   2991000  -1346.3041      232.11705     -1578.4211      305.37435     -2717.8462      3840.7412      0.99696119
   2992000  -1349.0681      212.24266     -1561.3107      279.2275      -273.31426      3840.7412      0.99696119
   2993000  -1305.4478      228.98027     -1534.428       301.24759      1210.2381      3840.7412      0.99696119
   2994000  -1323.0399      223.75859     -1546.7985      294.37793     -810.52907      3840.7412      0.99696119
   2995000  -1297.3373      235.69403     -1533.0313      310.08025      814.61116      3840.7412      0.99696119
   2996000  -1355.0357      223.64424     -1578.6799      294.22748     -2854.9903      3840.7412      0.99696119
   2997000  -1326.657       216.8658      -1543.5228      285.30974     -2157.2133      3840.7412      0.99696119
   2998000  -1350.6383      219.36846     -1570.0067      288.60225     -807.66959      3840.7412      0.99696119
   2999000  -1324.5139      234.19107     -1558.705       308.10295     -666.28658      3840.7412      0.99696119
   3000000  -1341.9683      232.99697     -1574.9653      306.53197     -767.62986      3840.7412      0.99696119
Loop time of 2538.86 on 2 procs for 2000000 steps with 384 atoms

Performance: 68.062 ns/day, 0.353 hours/ns, 787.755 timesteps/s
99.6% CPU use with 2 MPI tasks x 1 OpenMP threads

MPI task timing breakdown:
Section |  min time  |  avg time  |  max time  |%varavg| %total
---------------------------------------------------------------
Pair    | 1691.5     | 1703.2     | 1714.9     |  28.3 | 67.09
Bond    | 0.17474    | 0.17956    | 0.18438    |   1.1 |  0.01
Kspace  | 445.56     | 458.91     | 472.26     |  62.3 | 18.08
Neigh   | 104.59     | 104.59     | 104.59     |   0.0 |  4.12
Comm    | 154.75     | 156.39     | 158.04     |  13.1 |  6.16
Output  | 0.53593    | 0.54114    | 0.54636    |   0.7 |  0.02
Modify  | 108.85     | 109        | 109.16     |   1.5 |  4.29
Other   |            | 6.008      |            |       |  0.24

Nlocal:            192 ave         198 max         186 min
Histogram: 1 0 0 0 0 0 0 0 0 1
Nghost:         4811.5 ave        4824 max        4799 min
Histogram: 1 0 0 0 0 0 0 0 0 1
Neighs:        69271.5 ave       72132 max       66411 min
Histogram: 1 0 0 0 0 0 0 0 0 1

Total # of neighbors = 138543
Ave neighs/atom = 360.78906
Ave special neighs/atom = 2
Neighbor list builds = 64927
Dangerous builds = 0

# write data file
write_data data.after_prod.lmp
System init for write_data ...
PPPM initialization ...
  using 12-bit tables for long-range coulomb (src/kspace.cpp:342)
  G vector (1/distance) = 0.31203871
  grid = 15 15 15
  stencil order = 5
  estimated absolute RMS force accuracy = 0.0022228175
  estimated relative force accuracy = 6.6939488e-06
  using double precision FFTW3
  3d grid and FFT values/proc = 6776 1800
Generated 1 of 1 mixed pair_coeff terms from geometric mixing rule

# clean up
undump dPROD
unfix fTHERMO
unfix fMOM
unfix fSHAKE
Total wall time: 1:01:53
