LAMMPS (23 Jun 2022 - Update 4)
  using 1 OpenMP thread(s) per MPI task
# created by fftool

# System settings
units real
boundary p p p  # Periodic boundary conditions

# definition of atoms, bonds, angles
atom_style full
bond_style harmonic
angle_style harmonic

# definition of pair potentials
special_bonds lj/coul 0.0 0.0 0.5
pair_style lj/cut/coul/long 10.0 10.0
pair_modify mix geometric tail yes
kspace_style pppm 1.0e-5

# read data file
read_data data.lmp
Reading data file ...
  orthogonal box = (0 0 0) to (15.660478 15.660478 15.660478)
  1 by 1 by 2 MPI processor grid
  reading atoms ...
  384 atoms
  scanning bonds ...
  1 = max bonds/atom
  scanning angles ...
  1 = max angles/atom
  reading bonds ...
  256 bonds
  reading angles ...
  128 angles
Finding 1-2 1-3 1-4 neighbors ...
  special bond factors lj:    0        0        0.5
  special bond factors coul:  0        0        0.5
     2 = max # of 1-2 neighbors
     1 = max # of 1-3 neighbors
     1 = max # of 1-4 neighbors
     2 = max # of special neighbors
  special bonds CPU = 0.000 seconds
  read_data CPU = 0.006 seconds

# definition of LJ parameters
pair_coeff    1    1     0.000000     0.000000  # Hw Hw
pair_coeff    2    2     0.163315     3.168823  # Ow-Ow

############################################

# remove energy hotspots
minimize 1.0e-4 1.0e-6 100 1000
WARNING: Using 'neigh_modify every 1 delay 0 check yes' setting during minimization (src/min.cpp:187)
PPPM initialization ...
  using 12-bit tables for long-range coulomb (src/kspace.cpp:342)
  G vector (1/distance) = 0.31203871
  grid = 15 15 15
  stencil order = 5
  estimated absolute RMS force accuracy = 0.0022228175
  estimated relative force accuracy = 6.6939488e-06
  using double precision FFTW3
  3d grid and FFT values/proc = 6776 1800
Generated 1 of 1 mixed pair_coeff terms from geometric mixing rule
Neighbor list info ...
  update every 1 steps, delay 0 steps, check yes
  max neighbors/atom: 2000, page size: 100000
  master list distance cutoff = 12
  ghost atom cutoff = 12
  binsize = 6, bins = 3 3 3
  1 neighbor lists, perpetual/occasional/extra = 1 0 0
  (1) pair lj/cut/coul/long, perpetual
      attributes: half, newton on
      pair build: half/bin/newton
      stencil: half/bin/3d
      bin: standard
Per MPI rank memory allocation (min/avg/max) = 8.679 | 8.679 | 8.679 Mbytes
   Step          Temp          E_pair         E_mol          TotEng         Press
         0   0              610398.86      9.9223432e-07  610398.86      43642203
       100   0             -1918.9618      153.04093     -1765.9208     -5948.4183
Loop time of 0.236051 on 2 procs for 100 steps with 384 atoms

99.6% CPU use with 2 MPI tasks x 1 OpenMP threads

Minimization stats:
  Stopping criterion = max iterations
  Energy initial, next-to-last, final =
      610398.864440351  -1761.90967938247  -1765.92082087714
  Force two-norm initial, final = 8178264.1 41.633115
  Force max component initial, final = 5625076.2 10.528586
  Final line search alpha, max atom move = 0.00099941836 0.010522462
  Iterations, force evaluations = 100 170

MPI task timing breakdown:
Section |  min time  |  avg time  |  max time  |%varavg| %total
---------------------------------------------------------------
Pair    | 0.17597    | 0.17808    | 0.18018    |   0.5 | 75.44
Bond    | 0.00065186 | 0.00069332 | 0.00073479 |   0.0 |  0.29
Kspace  | 0.035016   | 0.037152   | 0.039288   |   1.1 | 15.74
Neigh   | 0.0059873  | 0.0059888  | 0.0059902  |   0.0 |  2.54
Comm    | 0.012491   | 0.012562   | 0.012633   |   0.1 |  5.32
Output  | 1.3212e-05 | 1.5295e-05 | 1.7378e-05 |   0.0 |  0.01
Modify  | 0          | 0          | 0          |   0.0 |  0.00
Other   |            | 0.001564   |            |       |  0.66

Nlocal:            192 ave         197 max         187 min
Histogram: 1 0 0 0 0 0 0 0 0 1
Nghost:         4816.5 ave        4825 max        4808 min
Histogram: 1 0 0 0 0 0 0 0 0 1
Neighs:          69343 ave       70627 max       68059 min
Histogram: 1 0 0 0 0 0 0 0 0 1

Total # of neighbors = 138686
Ave neighs/atom = 361.16146
Ave special neighs/atom = 2
Neighbor list builds = 4
Dangerous builds = 0
reset_timestep 0

# constrain water bonds and angles
fix fSHAKE all shake 0.0001 20 0 b 1 a 1
       0 = # of size 2 clusters
       0 = # of size 3 clusters
       0 = # of size 4 clusters
     128 = # of frozen angles
  find clusters CPU = 0.000 seconds

# remove Center of Mass movement every 100 steps
fix fMOM all momentum 100 linear 1 1 1

# define the neighbor list
neighbor 2.0 bin

# IMPORTANT: timestep and temperature and pressure
timestep 1.0
variable vTK equal 298.15
variable vPBAR equal 1.0

# randomize velocities
velocity all create ${vTK} 45338
velocity all create 298.15 45338

# thermostat (solving the ODE)
fix fTHERMO all nvt temp ${vTK} ${vTK} 100
fix fTHERMO all nvt temp 298.15 ${vTK} 100
fix fTHERMO all nvt temp 298.15 298.15 100

# print settings
thermo 1000
thermo_style custom step etotal ke pe temp press vol density
# trajectory output
dump dEQUI all custom 1000 equi.lammpstrj id element xu yu zu
dump_modify dEQUI element H O sort id

# equilibration
# 1 ns
run 1000000
PPPM initialization ...
  using 12-bit tables for long-range coulomb (src/kspace.cpp:342)
  G vector (1/distance) = 0.31203871
  grid = 15 15 15
  stencil order = 5
  estimated absolute RMS force accuracy = 0.0022228175
  estimated relative force accuracy = 6.6939488e-06
  using double precision FFTW3
  3d grid and FFT values/proc = 6776 1800
Generated 1 of 1 mixed pair_coeff terms from geometric mixing rule
Per MPI rank memory allocation (min/avg/max) = 9.716 | 9.716 | 9.717 Mbytes
   Step         TotEng         KinEng         PotEng          Temp          Press          Volume        Density
         0  -1692.336       226.62577     -1918.9618      298.15        -1440.1934      3840.7412      0.99696119
      1000  -1288.0333      226.30217     -1514.3355      297.72427      969.33412      3840.7412      0.99696119
      2000  -1284.7275      218.2535      -1502.981       287.1354      -1976.4011      3840.7412      0.99696119
      3000  -1281.0454      220.0057      -1501.0511      289.44061      695.52141      3840.7412      0.99696119
      4000  -1286.5712      247.35874     -1533.93        325.42639      254.8213       3840.7412      0.99696119
      5000  -1294.6531      219.75682     -1514.4099      289.11317     -541.91398      3840.7412      0.99696119
      6000  -1307.6431      228.06644     -1535.7095      300.04535     -262.59512      3840.7412      0.99696119
      7000  -1272.4954      237.83888     -1510.3343      312.90202     -2288.6993      3840.7412      0.99696119
      8000  -1269.3793      238.95114     -1508.3305      314.36532     -79.92819       3840.7412      0.99696119
      9000  -1285.9207      226.87371     -1512.7944      298.47619     -928.74231      3840.7412      0.99696119
     10000  -1316.0885      227.15431     -1543.2428      298.84534     -1522.137       3840.7412      0.99696119
     11000  -1270.6273      241.75631     -1512.3836      318.05581      176.7218       3840.7412      0.99696119
     12000  -1297.8193      239.74048     -1537.5598      315.40378     -3240.0487      3840.7412      0.99696119
     13000  -1337.1755      192.61389     -1529.7894      253.4038      -1286.2075      3840.7412      0.99696119
     14000  -1303.3305      226.05993     -1529.3904      297.40558     -1494.6524      3840.7412      0.99696119
     15000  -1271.5665      237.8949      -1509.4614      312.97572      1749.3141      3840.7412      0.99696119
     16000  -1310.2547      220.31442     -1530.5691      289.84675     -1990.027       3840.7412      0.99696119
     17000  -1298.3713      230.75498     -1529.1263      303.58241     -2668.8702      3840.7412      0.99696119
     18000  -1251.0485      244.74543     -1495.7939      321.98831      355.12969      3840.7412      0.99696119
     19000  -1314.6529      212.11504     -1526.768       279.05961     -2836.6031      3840.7412      0.99696119
     20000  -1340.7805      227.19993     -1567.9804      298.90536      91.650883      3840.7412      0.99696119
     21000  -1335.3595      210.57458     -1545.934       277.03297      383.97275      3840.7412      0.99696119
     22000  -1298.5755      228.50545     -1527.0809      300.62292     -880.93398      3840.7412      0.99696119
     23000  -1280.9873      235.49041     -1516.4777      309.81237      685.22168      3840.7412      0.99696119
     24000  -1297.3141      216.26205     -1513.5762      284.51544      548.07786      3840.7412      0.99696119
     25000  -1316.9326      218.13771     -1535.0703      286.98306      1056.5211      3840.7412      0.99696119
     26000  -1281.4872      235.29703     -1516.7843      309.55795     -949.74663      3840.7412      0.99696119
     27000  -1297.9429      227.19074     -1525.1337      298.89327     -119.45995      3840.7412      0.99696119
     28000  -1287.8492      216.66923     -1504.5184      285.05112      541.50405      3840.7412      0.99696119
     29000  -1309.0693      219.55498     -1528.6242      288.84764      1182.1797      3840.7412      0.99696119
     30000  -1294.1204      228.54891     -1522.6693      300.68008      1683.5456      3840.7412      0.99696119
     31000  -1310.0891      231.93653     -1542.0257      305.13687      471.14675      3840.7412      0.99696119
     32000  -1300.5682      219.95973     -1520.5279      289.38012      1907.7438      3840.7412      0.99696119
     33000  -1286.2652      237.77362     -1524.0388      312.81616      663.47658      3840.7412      0.99696119
     34000  -1284.3592      214.30657     -1498.6657      281.9428      -232.30859      3840.7412      0.99696119
     35000  -1289.4764      219.47217     -1508.9486      288.73869      1786.881       3840.7412      0.99696119
     36000  -1315.461       206.54529     -1522.0063      271.73202     -1059.4049      3840.7412      0.99696119
     37000  -1289.6967      229.01091     -1518.7076      301.2879      -1801.7491      3840.7412      0.99696119
     38000  -1314.1781      217.2689      -1531.447       285.84006      1222.4039      3840.7412      0.99696119
     39000  -1261.3181      236.24893     -1497.567       310.81027     -528.26559      3840.7412      0.99696119
     40000  -1306.7402      235.31034     -1542.0505      309.57546      560.67483      3840.7412      0.99696119
     41000  -1321.4336      219.89446     -1541.3281      289.29425     -1710.443       3840.7412      0.99696119
     42000  -1274.4274      221.88228     -1496.3097      291.90944      1001.4639      3840.7412      0.99696119
     43000  -1312.1433      208.47907     -1520.6224      274.27611     -187.22082      3840.7412      0.99696119
     44000  -1288.1253      215.9362      -1504.0615      284.08675     -1237.3332      3840.7412      0.99696119
     45000  -1308.392       218.0806      -1526.4726      286.90793      1039.8996      3840.7412      0.99696119
     46000  -1320.3763      216.60211     -1536.9784      284.96282     -1190.5206      3840.7412      0.99696119
     47000  -1284.0616      217.34224     -1501.4038      285.93653     -1222.9211      3840.7412      0.99696119
     48000  -1296.2625      232.85461     -1529.1171      306.34469      220.25022      3840.7412      0.99696119
     49000  -1341.8121      211.6736      -1553.4857      278.47885      875.09581      3840.7412      0.99696119
     50000  -1334.2277      227.49548     -1561.7231      299.2942      -508.53018      3840.7412      0.99696119
     51000  -1321.4238      238.92528     -1560.3491      314.3313       850.68597      3840.7412      0.99696119
     52000  -1326.8205      225.5158      -1552.3363      296.68972     -323.51294      3840.7412      0.99696119
     53000  -1308.5566      247.26855     -1555.8251      325.30775      1625.2595      3840.7412      0.99696119
     54000  -1325.6034      211.77873     -1537.3821      278.61716     -468.47725      3840.7412      0.99696119
     55000  -1268.9659      237.71764     -1506.6835      312.74252     -1304.2943      3840.7412      0.99696119
     56000  -1274.3795      236.34933     -1510.7288      310.94236     -1534.8416      3840.7412      0.99696119
     57000  -1321.9009      207.39261     -1529.2935      272.84676     -980.29305      3840.7412      0.99696119
     58000  -1321.2644      213.2113      -1534.4757      280.50185     -1989.5762      3840.7412      0.99696119
     59000  -1265.0094      239.04862     -1504.058       314.49356      1252.1661      3840.7412      0.99696119
     60000  -1302.1474      219.75856     -1521.906       289.11547      1465.1599      3840.7412      0.99696119
     61000  -1272.9574      229.79        -1502.7474      302.31287      198.42528      3840.7412      0.99696119
     62000  -1301.5402      210.03149     -1511.5717      276.31848      109.06162      3840.7412      0.99696119
     63000  -1252.8689      238.52131     -1491.3903      313.79983     -794.47587      3840.7412      0.99696119
     64000  -1299.36        220.66913     -1520.0291      290.31341      664.02713      3840.7412      0.99696119
     65000  -1272.3564      226.26474     -1498.6212      297.67503      361.809        3840.7412      0.99696119
     66000  -1318.8463      217.08341     -1535.9297      285.59602     -107.28392      3840.7412      0.99696119
     67000  -1299.6569      229.28058     -1528.9374      301.64268     -153.46886      3840.7412      0.99696119
     68000  -1264.2542      216.5951      -1480.8493      284.9536      -533.3471       3840.7412      0.99696119
     69000  -1329.2581      200.67779     -1529.9359      264.01271     -776.394        3840.7412      0.99696119
     70000  -1290.1967      247.95898     -1538.1557      326.21608      748.798        3840.7412      0.99696119
     71000  -1296.8084      237.83813     -1534.6465      312.90104      451.29701      3840.7412      0.99696119
     72000  -1286.2653      225.42733     -1511.6927      296.57333      144.98044      3840.7412      0.99696119
     73000  -1301.9117      220.6804      -1522.5921      290.32824      1079.715       3840.7412      0.99696119
     74000  -1307.2337      213.08216     -1520.3159      280.33196      197.97011      3840.7412      0.99696119
     75000  -1323.0312      219.17007     -1542.2013      288.34124      261.38736      3840.7412      0.99696119
     76000  -1275.3708      242.02982     -1517.4006      318.41564     -246.33591      3840.7412      0.99696119
     77000  -1323.2104      216.34162     -1539.552       284.62012      916.43156      3840.7412      0.99696119
     78000  -1309.0199      231.32009     -1540.34        304.32587      1656.7485      3840.7412      0.99696119
     79000  -1265.6973      233.09207     -1498.7894      306.6571       888.4095       3840.7412      0.99696119
     80000  -1320.5049      204.29353     -1524.7984      268.76959      298.93296      3840.7412      0.99696119
     81000  -1276.6487      245.76985     -1522.4186      323.33605     -946.81175      3840.7412      0.99696119
     82000  -1319.0105      215.27853     -1534.289       283.22152     -1873.3198      3840.7412      0.99696119
     83000  -1270.8193      242.58753     -1513.4068      319.14937     -1676.9646      3840.7412      0.99696119
     84000  -1336.725       216.38291     -1553.1079      284.67444     -772.44125      3840.7412      0.99696119
     85000  -1307.5748      233.59715     -1541.1719      307.32159     -26.722404      3840.7412      0.99696119
     86000  -1336.5968      205.20753     -1541.8044      269.97206      810.37052      3840.7412      0.99696119
     87000  -1270.5389      220.19818     -1490.7371      289.69383     -862.4061       3840.7412      0.99696119
     88000  -1330.1728      205.35861     -1535.5314      270.17082     -1473.3611      3840.7412      0.99696119
     89000  -1289.9682      216.74355     -1506.7117      285.1489       1543.2472      3840.7412      0.99696119
     90000  -1278.5884      233.60904     -1512.1974      307.33722     -1.6734632      3840.7412      0.99696119
     91000  -1285.0789      252.27514     -1537.354       331.89444     -382.55121      3840.7412      0.99696119
     92000  -1292.8624      213.66073     -1506.5232      281.09313      610.97402      3840.7412      0.99696119
     93000  -1304.6237      232.5622      -1537.1859      305.96        -930.96292      3840.7412      0.99696119
     94000  -1278.3791      205.40945     -1483.7886      270.2377      -710.06015      3840.7412      0.99696119
     95000  -1279.5687      235.68197     -1515.2507      310.06438     -492.83779      3840.7412      0.99696119
     96000  -1278.82        206.64707     -1485.4671      271.86591      12.724673      3840.7412      0.99696119
     97000  -1299.224       222.89691     -1522.1209      293.24428      97.207438      3840.7412      0.99696119
     98000  -1296.4043      221.96179     -1518.3661      292.01405     -2577.2415      3840.7412      0.99696119
     99000  -1296.2235      235.79485     -1532.0183      310.21289      716.6985       3840.7412      0.99696119
    100000  -1311.3145      219.71679     -1531.0313      289.0605      -492.50428      3840.7412      0.99696119
    101000  -1300.1206      220.56073     -1520.6814      290.1708       694.38335      3840.7412      0.99696119
    102000  -1277.7088      223.73317     -1501.442       294.34448     -542.01358      3840.7412      0.99696119
    103000  -1291.7683      230.34676     -1522.1151      303.04536     -3.43139        3840.7412      0.99696119
    104000  -1318.4734      215.87051     -1534.3439      284.00033     -129.48442      3840.7412      0.99696119
    105000  -1291.2428      214.92831     -1506.1711      282.76076     -526.54193      3840.7412      0.99696119
    106000  -1276.8278      232.98849     -1509.8163      306.52082     -751.12449      3840.7412      0.99696119
    107000  -1323.9606      214.80341     -1538.764       282.59644      1567.211       3840.7412      0.99696119
    108000  -1269.8925      250.2504      -1520.1429      329.23068      526.95302      3840.7412      0.99696119
    109000  -1318.1939      225.55625     -1543.7501      296.74294     -1756.6911      3840.7412      0.99696119
    110000  -1304.5741      222.81869     -1527.3927      293.14138      125.19626      3840.7412      0.99696119
    111000  -1280.4733      244.71775     -1525.1911      321.95189      582.23231      3840.7412      0.99696119
    112000  -1304.316       207.33278     -1511.6488      272.76804     -998.75727      3840.7412      0.99696119
    113000  -1322.4999      233.35639     -1555.8563      307.00483      1199.725       3840.7412      0.99696119
    114000  -1305.1316      230.65636     -1535.7879      303.45266      1189.7092      3840.7412      0.99696119
    115000  -1282.8817      244.03696     -1526.9187      321.05625     -306.45789      3840.7412      0.99696119
    116000  -1320.0485      217.05916     -1537.1077      285.56412      575.65132      3840.7412      0.99696119
    117000  -1298.9091      226.81827     -1525.7274      298.40326     -419.74177      3840.7412      0.99696119
    118000  -1315.8101      220.68021     -1536.4903      290.32799      465.51046      3840.7412      0.99696119
    119000  -1313.9846      219.36271     -1533.3473      288.59468     -695.78235      3840.7412      0.99696119
    120000  -1273.8523      226.74589     -1500.5982      298.30803     -1605.3187      3840.7412      0.99696119
    121000  -1312.4918      232.7531      -1545.2449      306.21114     -205.59366      3840.7412      0.99696119
    122000  -1296.8363      235.21904     -1532.0553      309.45535      250.87788      3840.7412      0.99696119
    123000  -1269.4398      247.29249     -1516.7323      325.33924      1852.973       3840.7412      0.99696119
    124000  -1266.2139      234.57642     -1500.7904      308.60991     -247.3177       3840.7412      0.99696119
    125000  -1290.0956      234.35144     -1524.447       308.31392     -1072.8496      3840.7412      0.99696119
    126000  -1295.1503      229.35676     -1524.507       301.7429      -977.48252      3840.7412      0.99696119
    127000  -1314.4437      218.46186     -1532.9055      287.40951      1401.2673      3840.7412      0.99696119
    128000  -1271.6078      242.78402     -1514.3918      319.40787     -801.66039      3840.7412      0.99696119
    129000  -1282.5237      234.61286     -1517.1365      308.65785     -1240.4919      3840.7412      0.99696119
    130000  -1287.4873      227.10187     -1514.5892      298.77636     -248.03625      3840.7412      0.99696119
    131000  -1283.7029      238.20998     -1521.9129      313.39025     -1419.7038      3840.7412      0.99696119
    132000  -1327.6306      207.63715     -1535.2677      273.16847     -1680.8015      3840.7412      0.99696119
    133000  -1277.5341      226.73878     -1504.2729      298.29867      1362.4874      3840.7412      0.99696119
    134000  -1263.145       234.92632     -1498.0713      309.07024     -2199.2871      3840.7412      0.99696119
    135000  -1274.8004      223.35904     -1498.1595      293.85227     -1275.5098      3840.7412      0.99696119
    136000  -1268.0171      232.34056     -1500.3577      305.66841     -296.13319      3840.7412      0.99696119
    137000  -1268.0319      240.26102     -1508.2929      316.0886      -2372.4822      3840.7412      0.99696119
    138000  -1302.6923      231.69229     -1534.3846      304.81554     -292.78048      3840.7412      0.99696119
    139000  -1280.2992      242.16385     -1522.463       318.59198     -478.24784      3840.7412      0.99696119
    140000  -1277.7411      217.0235      -1494.7646      285.5172      -1205.7972      3840.7412      0.99696119
    141000  -1292.2417      230.60246     -1522.8442      303.38175     -392.42622      3840.7412      0.99696119
    142000  -1304.2102      224.54995     -1528.7601      295.41904     -1092.209       3840.7412      0.99696119
    143000  -1306.9589      227.20853     -1534.1674      298.91668      256.26724      3840.7412      0.99696119
    144000  -1316.4786      214.22609     -1530.7047      281.83692     -1657.3412      3840.7412      0.99696119
    145000  -1291.9464      240.31871     -1532.2651      316.1645      -1167.4501      3840.7412      0.99696119
    146000  -1336.122       219.24297     -1555.3649      288.43715     -2188.2315      3840.7412      0.99696119
    147000  -1283.1277      238.50726     -1521.635       313.78135      130.42515      3840.7412      0.99696119
    148000  -1244.4348      258.51715     -1502.952       340.10645     -993.31881      3840.7412      0.99696119
    149000  -1245.7964      235.63075     -1481.4272      309.99699     -782.14457      3840.7412      0.99696119
    150000  -1305.3252      220.80131     -1526.1266      290.48731     -349.53162      3840.7412      0.99696119
    151000  -1285.5021      241.66502     -1527.1671      317.93572      1874.6173      3840.7412      0.99696119
    152000  -1298.7594      223.05582     -1521.8152      293.45336      327.80249      3840.7412      0.99696119
    153000  -1303.7466      229.15215     -1532.8988      301.47372      983.6324       3840.7412      0.99696119
    154000  -1320.009       217.03618     -1537.0452      285.53388      1083.5626      3840.7412      0.99696119
    155000  -1302.492       209.9002      -1512.3922      276.14575      717.81419      3840.7412      0.99696119
    156000  -1294.4152      235.54274     -1529.958       309.88121      1635.8662      3840.7412      0.99696119
    157000  -1269.6317      244.08918     -1513.7209      321.12495      1551.7505      3840.7412      0.99696119
    158000  -1321.2924      216.45761     -1537.75        284.77271     -1229.4954      3840.7412      0.99696119
    159000  -1294.8604      217.3923      -1512.2527      286.00239      403.97086      3840.7412      0.99696119
    160000  -1283.6062      239.93893     -1523.5451      315.66486     -593.47097      3840.7412      0.99696119
    161000  -1283.7188      220.59574     -1504.3145      290.21686     -405.54907      3840.7412      0.99696119
    162000  -1241.5206      249.53675     -1491.0573      328.2918       941.75247      3840.7412      0.99696119
    163000  -1297.0405      212.90262     -1509.9431      280.09576     -46.096475      3840.7412      0.99696119
    164000  -1277.9207      232.11315     -1510.0339      305.36922      201.29594      3840.7412      0.99696119
    165000  -1285.2243      238.39004     -1523.6144      313.62713     -199.32624      3840.7412      0.99696119
    166000  -1280.9648      227.38513     -1508.3499      299.14901      453.70554      3840.7412      0.99696119
    167000  -1321.8025      226.04626     -1547.8488      297.38759     -7.1707848      3840.7412      0.99696119
    168000  -1270.9811      220.25394     -1491.235       289.76719      1548.508       3840.7412      0.99696119
    169000  -1290.5924      225.99224     -1516.5847      297.31652      207.42015      3840.7412      0.99696119
    170000  -1285.6324      229.38956     -1515.022       301.78606     -208.7674       3840.7412      0.99696119
    171000  -1257.0007      226.27531     -1483.276       297.68893      957.34463      3840.7412      0.99696119
    172000  -1309.0417      205.78207     -1514.8238      270.72792     -513.47678      3840.7412      0.99696119
    173000  -1286.4133      237.40029     -1523.8136      312.32501     -1114.8071      3840.7412      0.99696119
    174000  -1254.5817      244.44276     -1499.0245      321.59011      733.3393       3840.7412      0.99696119
    175000  -1305.5116      231.11111     -1536.6227      304.05094      197.20064      3840.7412      0.99696119
    176000  -1271.1927      240.15634     -1511.3491      315.95089      15.323354      3840.7412      0.99696119
    177000  -1273.9234      221.19165     -1495.115       291.00084      104.93285      3840.7412      0.99696119
    178000  -1279.2578      243.92174     -1523.1795      320.90466      10.849207      3840.7412      0.99696119
    179000  -1302.6022      222.72781     -1525.33        293.02182      1557.6276      3840.7412      0.99696119
    180000  -1292.7997      208.02909     -1500.8288      273.68411      877.94337      3840.7412      0.99696119
    181000  -1335.2523      215.24302     -1550.4953      283.1748       1529.5694      3840.7412      0.99696119
    182000  -1276.9834      222.18742     -1499.1708      292.31088     -1994.9585      3840.7412      0.99696119
    183000  -1303.7818      249.20516     -1552.987       327.85556     -1014.0259      3840.7412      0.99696119
    184000  -1277.9783      236.23159     -1514.2099      310.78746     -825.42268      3840.7412      0.99696119
    185000  -1294.7164      227.30832     -1522.0247      299.04796     -313.58564      3840.7412      0.99696119
    186000  -1324.137       223.82208     -1547.959       294.46145     -357.82871      3840.7412      0.99696119
    187000  -1260.2767      236.56271     -1496.8395      311.22309      688.9895       3840.7412      0.99696119
    188000  -1320.7898      218.13152     -1538.9214      286.97492      356.97822      3840.7412      0.99696119
    189000  -1299.9257      225.40042     -1525.3261      296.53792      678.57324      3840.7412      0.99696119
    190000  -1330.8247      224.55203     -1555.3767      295.42178     -544.49532      3840.7412      0.99696119
    191000  -1277.4092      221.39352     -1498.8027      291.26643     -357.9501       3840.7412      0.99696119
    192000  -1298.9649      228.76965     -1527.7346      300.97049     -824.81069      3840.7412      0.99696119
    193000  -1325.2676      234.96319     -1560.2308      309.11875     -1251.4627      3840.7412      0.99696119
    194000  -1303.1399      220.81616     -1523.956       290.50685      2163.4739      3840.7412      0.99696119
    195000  -1308.6899      230.81514     -1539.5051      303.66155     -1659.7064      3840.7412      0.99696119
    196000  -1314.0042      217.19344     -1531.1976      285.74078     -13.282232      3840.7412      0.99696119
    197000  -1257.0869      242.0041      -1499.091       318.38181     -523.53008      3840.7412      0.99696119
    198000  -1319.6838      219.91353     -1539.5973      289.31935      950.55003      3840.7412      0.99696119
    199000  -1304.7626      223.14458     -1527.9072      293.57013      437.47918      3840.7412      0.99696119
    200000  -1248.0938      239.70245     -1487.7962      315.35375     -235.77063      3840.7412      0.99696119
    201000  -1304.2237      229.55624     -1533.78        302.00533     -1364.0479      3840.7412      0.99696119
    202000  -1288.2166      236.95229     -1525.1689      311.73562      515.67505      3840.7412      0.99696119
    203000  -1269.2556      216.8168      -1486.0724      285.24526     -37.070833      3840.7412      0.99696119
    204000  -1286.3967      238.70861     -1525.1053      314.04624     -2396.1092      3840.7412      0.99696119
    205000  -1299.2459      227.17168     -1526.4175      298.8682       210.28674      3840.7412      0.99696119
    206000  -1299.0778      212.22494     -1511.3028      279.20419     -1162.7865      3840.7412      0.99696119
    207000  -1294.0148      211.92803     -1505.9428      278.81357     -1108.9856      3840.7412      0.99696119
    208000  -1290.7462      234.74372     -1525.4899      308.83001     -1770.82        3840.7412      0.99696119
    209000  -1300.8122      230.13311     -1530.9453      302.76427      542.2783       3840.7412      0.99696119
    210000  -1283.4015      217.99653     -1501.398       286.79733      431.50474      3840.7412      0.99696119
    211000  -1271.4946      227.45332     -1498.948       299.23873     -194.3244       3840.7412      0.99696119
    212000  -1318.2297      207.38566     -1525.6154      272.83761     -2887.4952      3840.7412      0.99696119
    213000  -1279.0453      234.59384     -1513.6392      308.63283     -1041.3568      3840.7412      0.99696119
    214000  -1302.761       220.34178     -1523.1028      289.88275     -1587.6565      3840.7412      0.99696119
    215000  -1297.9659      227.65053     -1525.6164      299.49818     -460.97         3840.7412      0.99696119
    216000  -1286.9658      255.8187      -1542.7845      336.55636     -1019.8111      3840.7412      0.99696119
    217000  -1328.2016      227.68307     -1555.8846      299.54099     -912.00763      3840.7412      0.99696119
    218000  -1287.2623      227.71545     -1514.9777      299.58358     -623.67944      3840.7412      0.99696119
    219000  -1327.2375      235.10924     -1562.3467      309.31089     -2164.8317      3840.7412      0.99696119
    220000  -1315.8827      223.87557     -1539.7583      294.53183     -974.76729      3840.7412      0.99696119
    221000  -1308.7243      217.75351     -1526.4778      286.47761     -297.41297      3840.7412      0.99696119
    222000  -1291.3184      235.35752     -1526.676       309.63753     -383.91211      3840.7412      0.99696119
    223000  -1269.7189      248.83428     -1518.5532      327.36762      505.48265      3840.7412      0.99696119
    224000  -1307.5767      225.89147     -1533.4682      297.18395     -220.05401      3840.7412      0.99696119
    225000  -1348.2928      217.07435     -1565.3672      285.5841      -417.01251      3840.7412      0.99696119
    226000  -1317.2321      213.65323     -1530.8853      281.08326     -149.62853      3840.7412      0.99696119
    227000  -1314.6112      220.01832     -1534.6295      289.4572      -1111.4869      3840.7412      0.99696119
    228000  -1298.8483      228.23285     -1527.0812      300.26428      945.24415      3840.7412      0.99696119
    229000  -1290.2395      220.85531     -1511.0948      290.55835     -1725.4262      3840.7412      0.99696119
    230000  -1318.6305      210.23118     -1528.8617      276.58119      19.546873      3840.7412      0.99696119
    231000  -1298.6789      218.9264      -1517.6052      288.02067      161.59784      3840.7412      0.99696119
    232000  -1313.423       223.69087     -1537.1138      294.28883     -1541.7369      3840.7412      0.99696119
    233000  -1268.8446      247.07657     -1515.9212      325.05518     -2290.9148      3840.7412      0.99696119
    234000  -1296.8517      220.12068     -1516.9723      289.59187     -479.12124      3840.7412      0.99696119
    235000  -1311.9505      205.96859     -1517.9191      270.97331      553.19015      3840.7412      0.99696119
    236000  -1278.034       230.90434     -1508.9383      303.77891     -77.620002      3840.7412      0.99696119
    237000  -1301.3248      230.02078     -1531.3456      302.61649      1143.9939      3840.7412      0.99696119
    238000  -1296.9335      231.71023     -1528.6438      304.83914      323.44216      3840.7412      0.99696119
    239000  -1284.2073      221.89987     -1506.1072      291.93257      1620.6269      3840.7412      0.99696119
    240000  -1320.0636      208.9038      -1528.9674      274.83489      29.213304      3840.7412      0.99696119
    241000  -1286.0787      241.32844     -1527.4072      317.4929      -154.84232      3840.7412      0.99696119
    242000  -1264.2557      235.10678     -1499.3625      309.30766      453.60474      3840.7412      0.99696119
    243000  -1277.1141      231.80486     -1508.919       304.96363     -457.34656      3840.7412      0.99696119
    244000  -1285.7448      224.05258     -1509.7974      294.76469      865.44678      3840.7412      0.99696119
    245000  -1284.65        233.22602     -1517.876       306.83332     -723.97234      3840.7412      0.99696119
    246000  -1258.1231      235.34451     -1493.4676      309.62041      1242.6195      3840.7412      0.99696119
    247000  -1298.9166      216.23407     -1515.1507      284.47862     -511.50616      3840.7412      0.99696119
    248000  -1328.502       216.89508     -1545.3971      285.34825      1313.2292      3840.7412      0.99696119
    249000  -1253.9987      236.9507      -1490.9494      311.73352     -501.86365      3840.7412      0.99696119
    250000  -1294.0592      223.6397      -1517.6989      294.22151     -1352.0755      3840.7412      0.99696119
    251000  -1291.5297      212.57689     -1504.1066      279.66722     -754.75494      3840.7412      0.99696119
    252000  -1281.7769      236.77797     -1518.5549      311.50628      119.48894      3840.7412      0.99696119
    253000  -1275.5668      231.63853     -1507.2053      304.74481     -813.20911      3840.7412      0.99696119
    254000  -1272.226       234.28202     -1506.508       308.22259      35.472641      3840.7412      0.99696119
    255000  -1278.4521      242.31766     -1520.7698      318.79433      501.33122      3840.7412      0.99696119
    256000  -1297.5076      232.82901     -1530.3366      306.31101      2138.6613      3840.7412      0.99696119
    257000  -1310.6528      236.42238     -1547.0752      311.03846     -417.38589      3840.7412      0.99696119
    258000  -1271.7777      215.83159     -1487.6093      283.94913     -7.7619697      3840.7412      0.99696119
    259000  -1246.8544      239.06906     -1485.9234      314.52045     -511.72003      3840.7412      0.99696119
    260000  -1285.1749      220.49775     -1505.6726      290.08794      1286.0065      3840.7412      0.99696119
    261000  -1270.5711      232.20851     -1502.7796      305.49468      947.39403      3840.7412      0.99696119
    262000  -1331.6744      228.63344     -1560.3078      300.7913       231.61949      3840.7412      0.99696119
    263000  -1310.7765      214.62238     -1525.3989      282.35827      1043.8567      3840.7412      0.99696119
    264000  -1345.0399      216.25411     -1561.294       284.505        150.69384      3840.7412      0.99696119
    265000  -1322.3964      224.51202     -1546.9084      295.36914      1075.1378      3840.7412      0.99696119
    266000  -1318.8734      209.14302     -1528.0164      275.1496      -369.9241       3840.7412      0.99696119
    267000  -1281.7977      241.14484     -1522.9425      317.25136      222.69586      3840.7412      0.99696119
    268000  -1255.4233      225.24239     -1480.6657      296.33002      803.7879       3840.7412      0.99696119
    269000  -1262.9797      226.01437     -1488.9941      297.34563      1773.1688      3840.7412      0.99696119
    270000  -1294.612       213.9616      -1508.5736      281.48896     -63.362967      3840.7412      0.99696119
    271000  -1300.5241      208.13945     -1508.6635      273.8293      -831.16989      3840.7412      0.99696119
    272000  -1293.1606      195.59424     -1488.7548      257.32477     -1086.0406      3840.7412      0.99696119
    273000  -1299.4634      242.56714     -1542.0306      319.12255     -601.84164      3840.7412      0.99696119
    274000  -1303.5579      218.60765     -1522.1655      287.60131     -1186.0323      3840.7412      0.99696119
    275000  -1307.3608      223.14826     -1530.5091      293.57496      633.24857      3840.7412      0.99696119
    276000  -1315.4542      205.42969     -1520.8838      270.26433      3900.1419      3840.7412      0.99696119
    277000  -1306.5946      228.46938     -1535.064       300.57546     -180.01367      3840.7412      0.99696119
    278000  -1315.4526      206.89145     -1522.3441      272.18742     -1845.7695      3840.7412      0.99696119
    279000  -1294.7195      213.50715     -1508.2267      280.89107      629.40732      3840.7412      0.99696119
    280000  -1279.4685      234.45392     -1513.9224      308.44875     -2145.5054      3840.7412      0.99696119
    281000  -1295.6796      224.93653     -1520.6161      295.92762      367.59862      3840.7412      0.99696119
    282000  -1295.2837      242.10482     -1537.3886      318.51432      1851.7984      3840.7412      0.99696119
    283000  -1303.4663      229.11899     -1532.5852      301.43009      2022.8898      3840.7412      0.99696119
    284000  -1283.0817      246.90299     -1529.9846      324.82681     -16.481004      3840.7412      0.99696119
    285000  -1299.3059      230.12399     -1529.4299      302.75227      331.98319      3840.7412      0.99696119
    286000  -1311.7789      221.24732     -1533.0262      291.07408     -1251.5298      3840.7412      0.99696119
    287000  -1309.8353      220.80964     -1530.645       290.49826      848.23478      3840.7412      0.99696119
    288000  -1308.3186      216.30757     -1524.6262      284.57532      1667.2098      3840.7412      0.99696119
    289000  -1335.1326      209.65056     -1544.7831      275.81732      727.22259      3840.7412      0.99696119
    290000  -1289.1815      221.74456     -1510.926       291.72825     -811.74026      3840.7412      0.99696119
    291000  -1299.1814      235.61591     -1534.7973      309.97747     -527.42493      3840.7412      0.99696119
    292000  -1292.8752      229.48174     -1522.357       301.90733     -1131.6689      3840.7412      0.99696119
    293000  -1279.2255      228.95995     -1508.1855      301.22086      1785.6902      3840.7412      0.99696119
    294000  -1284.7273      237.78397     -1522.5113      312.82978     -962.53853      3840.7412      0.99696119
    295000  -1304.4691      230.68418     -1535.1533      303.48926     -291.57489      3840.7412      0.99696119
    296000  -1331.8091      200.37137     -1532.1805      263.60958     -943.02043      3840.7412      0.99696119
    297000  -1274.6895      230.61879     -1505.3082      303.40323      2457.7841      3840.7412      0.99696119
    298000  -1282.0512      219.88562     -1501.9369      289.28262      775.75241      3840.7412      0.99696119
    299000  -1279.8496      238.30724     -1518.1569      313.51819      730.11539      3840.7412      0.99696119
    300000  -1282.4734      222.79748     -1505.2709      293.11348     -1227.8988      3840.7412      0.99696119
    301000  -1276.4885      232.3482      -1508.8367      305.67845      700.71101      3840.7412      0.99696119
    302000  -1289.7455      227.41707     -1517.1626      299.19104     -29.725174      3840.7412      0.99696119
    303000  -1330.5428      218.19147     -1548.7342      287.05379     -100.32439      3840.7412      0.99696119
    304000  -1236.286       256.06541     -1492.3514      336.88094      552.6994       3840.7412      0.99696119
    305000  -1323.8346      209.60677     -1533.4414      275.75972      1412.742       3840.7412      0.99696119
    306000  -1263.1255      236.28519     -1499.4107      310.85798      736.56032      3840.7412      0.99696119
    307000  -1289.665       231.41298     -1521.078       304.44808      500.85814      3840.7412      0.99696119
    308000  -1286.552       215.81031     -1502.3623      283.92112      415.30655      3840.7412      0.99696119
    309000  -1292.5936      227.80253     -1520.3961      299.69815     -1703.3688      3840.7412      0.99696119
    310000  -1267.2379      231.31656     -1498.5544      304.32122     -367.59843      3840.7412      0.99696119
    311000  -1303.6435      207.35474     -1510.9983      272.79694      869.96603      3840.7412      0.99696119
    312000  -1296.7909      226.11949     -1522.9103      297.48393     -195.5262       3840.7412      0.99696119
    313000  -1245.8415      234.16273     -1480.0043      308.06567      465.65347      3840.7412      0.99696119
    314000  -1292.4661      221.80265     -1514.2688      291.80468      1167.6193      3840.7412      0.99696119
    315000  -1252.9269      236.16133     -1489.0882      310.69503      43.312673      3840.7412      0.99696119
    316000  -1289.459       217.95592     -1507.4149      286.7439      -2662.86        3840.7412      0.99696119
    317000  -1284.9152      215.61467     -1500.5299      283.66374     -387.80866      3840.7412      0.99696119
    318000  -1322.495       214.38177     -1536.8767      282.04172     -355.0597       3840.7412      0.99696119
    319000  -1263.3963      220.95518     -1484.3515      290.68974      942.12123      3840.7412      0.99696119
    320000  -1267.516       244.10326     -1511.6192      321.14348     -660.93183      3840.7412      0.99696119
    321000  -1281.0391      207.35196     -1488.3911      272.79328      2429.3853      3840.7412      0.99696119
    322000  -1264.3174      243.22709     -1507.5445      319.99078     -89.525419      3840.7412      0.99696119
    323000  -1276.759       212.09639     -1488.8553      279.03507     -343.75576      3840.7412      0.99696119
    324000  -1284.81        233.91757     -1518.7276      307.74313     -812.53465      3840.7412      0.99696119
    325000  -1281.4773      229.8627      -1511.34        302.40851     -1398.8977      3840.7412      0.99696119
    326000  -1280.1403      222.90636     -1503.0466      293.25672      1753.0568      3840.7412      0.99696119
    327000  -1273.838       219.59759     -1493.4356      288.90369     -1432.9196      3840.7412      0.99696119
    328000  -1322.2161      232.6178      -1554.8339      306.03315      2460.9382      3840.7412      0.99696119
    329000  -1236.9686      247.44737     -1484.416       325.543       -118.85874      3840.7412      0.99696119
    330000  -1272.516       219.26764     -1491.7837      288.4696      -932.00669      3840.7412      0.99696119
    331000  -1243.5049      247.16128     -1490.6662      325.16662     -569.49935      3840.7412      0.99696119
    332000  -1281.444       238.6382      -1520.0822      313.95361      830.12972      3840.7412      0.99696119
    333000  -1215.7989      245.89065     -1461.6895      323.49497     -1173.3124      3840.7412      0.99696119
    334000  -1285.3671      220.87363     -1506.2408      290.58245     -1624.9849      3840.7412      0.99696119
    335000  -1248.46        228.85296     -1477.3129      301.0801       1108.8871      3840.7412      0.99696119
    336000  -1285.3053      221.37911     -1506.6844      291.24746     -146.92702      3840.7412      0.99696119
    337000  -1350.5378      203.81565     -1554.3535      268.14089      706.18257      3840.7412      0.99696119
    338000  -1312.3523      204.9248      -1517.2771      269.6001       1333.2185      3840.7412      0.99696119
    339000  -1281.4606      236.67128     -1518.1319      311.36592     -683.69942      3840.7412      0.99696119
    340000  -1286.866       232.40178     -1519.2678      305.74895     -632.75573      3840.7412      0.99696119
    341000  -1313.1624      220.79652     -1533.9589      290.481        838.18452      3840.7412      0.99696119
    342000  -1266.798       230.53134     -1497.3293      303.28819      2164.7882      3840.7412      0.99696119
    343000  -1326.8808      217.93798     -1544.8188      286.7203      -1042.777       3840.7412      0.99696119
    344000  -1289.897       230.28405     -1520.1811      302.96285      55.291848      3840.7412      0.99696119
    345000  -1320.0024      238.6102      -1558.6126      313.91677      185.32872      3840.7412      0.99696119
    346000  -1309.5924      206.12349     -1515.7159      271.17709     -578.83373      3840.7412      0.99696119
    347000  -1291.9691      233.86232     -1525.8314      307.67043     -164.8317       3840.7412      0.99696119
    348000  -1279.1337      231.4066      -1510.5403      304.43968     -719.33912      3840.7412      0.99696119
    349000  -1292.4511      230.2435      -1522.6946      302.90951      1854.9413      3840.7412      0.99696119
    350000  -1299.9405      244.24838     -1544.1889      321.3344      -561.61279      3840.7412      0.99696119
    351000  -1268.3337      238.61714     -1506.9509      313.92591      1443.6693      3840.7412      0.99696119
    352000  -1297.9705      223.58675     -1521.5573      294.15185     -568.12348      3840.7412      0.99696119
    353000  -1304.7241      240.44327     -1545.1674      316.32837     -1367.9375      3840.7412      0.99696119
    354000  -1338.8266      215.85232     -1554.6789      283.97639     -1345.055       3840.7412      0.99696119
    355000  -1308.4577      231.82596     -1540.2837      304.99139      860.35263      3840.7412      0.99696119
    356000  -1289.1447      235.39537     -1524.54        309.68732      662.96519      3840.7412      0.99696119
    357000  -1295.9333      229.26522     -1525.1986      301.62247     -1818.0061      3840.7412      0.99696119
    358000  -1291.6397      216.18296     -1507.8226      284.41138     -2320.8322      3840.7412      0.99696119
    359000  -1317.3908      212.6285      -1530.0193      279.73512     -783.81415      3840.7412      0.99696119
    360000  -1292.9515      217.14883     -1510.1004      285.68208     -2039.7178      3840.7412      0.99696119
    361000  -1299.8869      228.39502     -1528.2819      300.47763      541.74293      3840.7412      0.99696119
    362000  -1298.5191      231.29523     -1529.8143      304.29316      712.96781      3840.7412      0.99696119
    363000  -1331.3316      214.0981      -1545.4297      281.66853      3070.3961      3840.7412      0.99696119
    364000  -1288.018       223.91131     -1511.9293      294.57884      890.37974      3840.7412      0.99696119
    365000  -1309.9511      220.82121     -1530.7723      290.51349      2348.1707      3840.7412      0.99696119
    366000  -1300.6924      218.57827     -1519.2707      287.56267      807.80874      3840.7412      0.99696119
    367000  -1284.4926      248.69658     -1533.1892      327.18647      116.41447      3840.7412      0.99696119
    368000  -1331.5608      212.33724     -1543.898       279.35193     -280.50959      3840.7412      0.99696119
    369000  -1291.2413      221.73275     -1512.9741      291.71271     -1833.4322      3840.7412      0.99696119
    370000  -1328.1211      227.44955     -1555.5706      299.23376      1450.0384      3840.7412      0.99696119
    371000  -1322.0382      228.35399     -1550.3922      300.42365      27.332246      3840.7412      0.99696119
    372000  -1315.4574      231.78956     -1547.247       304.94351     -84.17543       3840.7412      0.99696119
    373000  -1284.2971      223.80563     -1508.1028      294.43981      831.58044      3840.7412      0.99696119
    374000  -1263.8762      223.89968     -1487.7759      294.56354      561.92637      3840.7412      0.99696119
    375000  -1271.1878      228.99811     -1500.1859      301.27106     -634.82292      3840.7412      0.99696119
    376000  -1308.7244      230.43328     -1539.1577      303.15918     -160.29559      3840.7412      0.99696119
    377000  -1277.024       229.81439     -1506.8384      302.34497     -663.57358      3840.7412      0.99696119
    378000  -1283.9968      221.6008      -1505.5976      291.53912      1259.6717      3840.7412      0.99696119
    379000  -1265.0286      236.02157     -1501.0501      310.51116     -769.65796      3840.7412      0.99696119
    380000  -1286.1406      228.18301     -1514.3236      300.19871      1923.4912      3840.7412      0.99696119
    381000  -1310.9439      214.55835     -1525.5022      282.27403      2093.3946      3840.7412      0.99696119
    382000  -1310.5328      210.00421     -1520.537       276.28258     -1414.2163      3840.7412      0.99696119
    383000  -1254.8638      228.64832     -1483.5121      300.81088      132.01007      3840.7412      0.99696119
    384000  -1317.1162      210.05272     -1527.1689      276.34641     -578.82592      3840.7412      0.99696119
    385000  -1299.165       218.01368     -1517.1787      286.81989      354.75329      3840.7412      0.99696119
    386000  -1293.7302      229.0665      -1522.7967      301.36104     -1659.7254      3840.7412      0.99696119
    387000  -1296.5237      216.77986     -1513.3035      285.19667      1080.1622      3840.7412      0.99696119
    388000  -1291.7258      214.20536     -1505.9311      281.80964      1566.2165      3840.7412      0.99696119
    389000  -1313.7504      227.70191     -1541.4523      299.56578     -1338.7775      3840.7412      0.99696119
    390000  -1288.5251      231.55119     -1520.0763      304.6299       33.384364      3840.7412      0.99696119
    391000  -1328.0822      223.26425     -1551.3465      293.72757      424.30773      3840.7412      0.99696119
    392000  -1316.4582      218.29925     -1534.7574      287.19559      1343.2555      3840.7412      0.99696119
    393000  -1315.1827      207.14191     -1522.3246      272.51693      1309.6334      3840.7412      0.99696119
    394000  -1277.5095      237.3629      -1514.8724      312.27582     -1372.5782      3840.7412      0.99696119
    395000  -1304.8709      236.21237     -1541.0833      310.76217      1063.5926      3840.7412      0.99696119
    396000  -1243.4344      240.02008     -1483.4545      315.77162     -533.32028      3840.7412      0.99696119
    397000  -1293.8843      218.61718     -1512.5015      287.61386      9.4253734      3840.7412      0.99696119
    398000  -1325.8374      205.12144     -1530.9589      269.85879      1249.9491      3840.7412      0.99696119
    399000  -1311.295       214.91563     -1526.2106      282.74409      7.6198683      3840.7412      0.99696119
    400000  -1268.9768      235.69797     -1504.6748      310.08543     -295.75725      3840.7412      0.99696119
    401000  -1261.486       249.34479     -1510.8308      328.03926      2353.2461      3840.7412      0.99696119
    402000  -1321.4428      212.46559     -1533.9084      279.5208      -917.44703      3840.7412      0.99696119
    403000  -1293.5957      215.78781     -1509.3835      283.89152      925.56558      3840.7412      0.99696119
    404000  -1271.775       236.51059     -1508.2856      311.15452      699.53577      3840.7412      0.99696119
    405000  -1310.8031      220.60845     -1531.4116      290.23358      193.33742      3840.7412      0.99696119
    406000  -1263.5995      239.89583     -1503.4954      315.60816      880.04584      3840.7412      0.99696119
    407000  -1285.9735      215.13355     -1501.107       283.03077     -161.89306      3840.7412      0.99696119
    408000  -1314.1057      205.74081     -1519.8465      270.67364     -2568.9369      3840.7412      0.99696119
    409000  -1288.3943      231.78645     -1520.1808      304.93941     -505.43568      3840.7412      0.99696119
    410000  -1309.0202      214.03912     -1523.0594      281.59094      108.2498       3840.7412      0.99696119
    411000  -1264.8057      244.25105     -1509.0568      321.33791     -814.33505      3840.7412      0.99696119
    412000  -1294.7919      199.22508     -1494.017       262.10152     -332.27705      3840.7412      0.99696119
    413000  -1309.8955      222.47147     -1532.367       292.68457      481.40305      3840.7412      0.99696119
    414000  -1284.5464      231.18196     -1515.7283      304.14415      519.33321      3840.7412      0.99696119
    415000  -1299.0978      206.80511     -1505.9029      272.07384     -1084.6414      3840.7412      0.99696119
    416000  -1288.8524      224.45889     -1513.3112      295.29924     -267.45576      3840.7412      0.99696119
    417000  -1313.661       225.28474     -1538.9457      296.38573     -1048.209       3840.7412      0.99696119
    418000  -1292.5205      213.39242     -1505.9129      280.74013     -1041.4976      3840.7412      0.99696119
    419000  -1307.0863      229.31784     -1536.4041      301.69169      269.97836      3840.7412      0.99696119
    420000  -1280.8139      231.68289     -1512.4968      304.80317      96.568171      3840.7412      0.99696119
    421000  -1267.9661      213.58075     -1481.5469      280.9879       837.35075      3840.7412      0.99696119
    422000  -1317.7871      226.08338     -1543.8704      297.43643      1843.5616      3840.7412      0.99696119
    423000  -1297.9391      230.46939     -1528.4085      303.20668     -823.05467      3840.7412      0.99696119
    424000  -1279.3558      228.61707     -1507.9729      300.76976      15.28781       3840.7412      0.99696119
    425000  -1318.0253      218.4059      -1536.4312      287.33589     -2289.4425      3840.7412      0.99696119
    426000  -1282.0345      229.47803     -1511.5125      301.90244      1484.0593      3840.7412      0.99696119
    427000  -1299.4216      230.52052     -1529.9421      303.27395      732.14605      3840.7412      0.99696119
    428000  -1309.6981      226.53227     -1536.2303      298.02699     -239.7439       3840.7412      0.99696119
    429000  -1324.8092      220.53399     -1545.3431      290.13562     -1780.0426      3840.7412      0.99696119
    430000  -1310.3987      215.61754     -1526.0162      283.66752     -1543.3179      3840.7412      0.99696119
    431000  -1304.9334      207.75874     -1512.6921      273.32843     -1460.8608      3840.7412      0.99696119
    432000  -1341.7148      203.84081     -1545.5556      268.17399      32.89613       3840.7412      0.99696119
    433000  -1314.8119      223.44841     -1538.2604      293.96984     -328.36315      3840.7412      0.99696119
    434000  -1292.035       231.61042     -1523.6455      304.70783      250.85167      3840.7412      0.99696119
    435000  -1310.9853      221.75162     -1532.7369      291.73754      1210.3071      3840.7412      0.99696119
    436000  -1293.6041      222.90531     -1516.5094      293.25534     -1201.2571      3840.7412      0.99696119
    437000  -1332.0846      227.01005     -1559.0946      298.65555      1258.6903      3840.7412      0.99696119
    438000  -1296.5789      237.28157     -1533.8605      312.16882      167.73172      3840.7412      0.99696119
    439000  -1255.9951      240.51417     -1496.5093      316.42164      2480.3548      3840.7412      0.99696119
    440000  -1302.9365      228.81645     -1531.753       301.03207     -1725.5357      3840.7412      0.99696119
    441000  -1320.5124      232.86635     -1553.3788      306.36014      158.29903      3840.7412      0.99696119
    442000  -1312.5073      225.90625     -1538.4136      297.20339     -1945.7349      3840.7412      0.99696119
    443000  -1287.2132      216.75672     -1503.9699      285.16623      369.17095      3840.7412      0.99696119
    444000  -1253.2251      258.7889      -1512.014       340.46398     -1952.8742      3840.7412      0.99696119
    445000  -1294.7544      226.63595     -1521.3903      298.1634      -1173.9724      3840.7412      0.99696119
    446000  -1297.6329      218.6125      -1516.2454      287.6077      -964.65767      3840.7412      0.99696119
    447000  -1274.4628      237.42647     -1511.8893      312.35945     -515.78459      3840.7412      0.99696119
    448000  -1286.2045      229.22594     -1515.4304      301.5708      -602.89676      3840.7412      0.99696119
    449000  -1311.7946      211.73538     -1523.53        278.56013      912.92127      3840.7412      0.99696119
    450000  -1293.9708      218.68063     -1512.6514      287.69733      67.926264      3840.7412      0.99696119
    451000  -1270.2939      249.77283     -1520.0667      328.60239      1688.0565      3840.7412      0.99696119
    452000  -1290.4154      237.36647     -1527.7819      312.28052     -3069.1506      3840.7412      0.99696119
    453000  -1278.1244      227.04814     -1505.1725      298.70567     -1269.5568      3840.7412      0.99696119
    454000  -1289.6801      223.78618     -1513.4663      294.41422      1016.0159      3840.7412      0.99696119
    455000  -1309.8382      210.9781      -1520.8163      277.56384      174.3553       3840.7412      0.99696119
    456000  -1281.1898      219.25254     -1500.4424      288.44974     -2476.6084      3840.7412      0.99696119
    457000  -1285.036       218.685       -1503.721       287.70309      482.21111      3840.7412      0.99696119
    458000  -1296.564       232.92768     -1529.4916      306.44082     -1612.3064      3840.7412      0.99696119
    459000  -1298.8383      207.15283     -1505.9911      272.5313       1115.4483      3840.7412      0.99696119
    460000  -1276.7213      220.88212     -1497.6035      290.59363      79.166506      3840.7412      0.99696119
    461000  -1274.9539      244.45874     -1519.4126      321.61115     -79.574864      3840.7412      0.99696119
    462000  -1283.4032      242.0943      -1525.4975      318.50047     -346.14929      3840.7412      0.99696119
    463000  -1281.6284      221.30666     -1502.9351      291.15215      483.39491      3840.7412      0.99696119
    464000  -1309.7276      212.78247     -1522.5101      279.93768     -2739.346       3840.7412      0.99696119
    465000  -1317.3027      229.35907     -1546.6617      301.74594     -584.65432      3840.7412      0.99696119
    466000  -1354.0894      204.59955     -1558.6889      269.17219     -266.69099      3840.7412      0.99696119
    467000  -1325.8097      221.61502     -1547.4247      291.55783     -412.40734      3840.7412      0.99696119
    468000  -1277.9215      221.77111     -1499.6926      291.76318     -897.19018      3840.7412      0.99696119
    469000  -1241.7306      254.97856     -1496.7092      335.45107      768.79385      3840.7412      0.99696119
    470000  -1261.2968      229.92921     -1491.226       302.49602      438.44368      3840.7412      0.99696119
    471000  -1274.0294      241.46717     -1515.4965      317.67542     -2380.1846      3840.7412      0.99696119
    472000  -1242.2039      248.09973     -1490.3037      326.40125      1635.7385      3840.7412      0.99696119
    473000  -1315.7526      218.25641     -1534.009       287.13923     -209.10467      3840.7412      0.99696119
    474000  -1260.6846      251.5417      -1512.2263      330.92952     -392.25518      3840.7412      0.99696119
    475000  -1264.7626      229.19055     -1493.9531      301.52424     -203.2505       3840.7412      0.99696119
    476000  -1297.965       210.10628     -1508.0713      276.41687     -189.11557      3840.7412      0.99696119
    477000  -1266.4841      238.49937     -1504.9835      313.77096      2197.74        3840.7412      0.99696119
    478000  -1299.429       243.76443     -1543.1934      320.6977      -1871.7458      3840.7412      0.99696119
    479000  -1275.4977      249.38472     -1524.8824      328.09179     -1025.1886      3840.7412      0.99696119
    480000  -1308.2383      222.59735     -1530.8357      292.85019     -663.50771      3840.7412      0.99696119
    481000  -1267.3666      208.87462     -1476.2413      274.7965       541.5398       3840.7412      0.99696119
    482000  -1284.7765      235.78659     -1520.5631      310.20202      475.93856      3840.7412      0.99696119
    483000  -1282.3935      247.46686     -1529.8604      325.56864     -93.099324      3840.7412      0.99696119
    484000  -1280.0136      222.70717     -1502.7207      292.99467     -134.90149      3840.7412      0.99696119
    485000  -1265.9541      234.8456      -1500.7997      308.96405     -254.27353      3840.7412      0.99696119
    486000  -1300.2788      226.85665     -1527.1355      298.45374     -747.33034      3840.7412      0.99696119
    487000  -1285.5462      236.6208      -1522.167       311.29951     -900.60991      3840.7412      0.99696119
    488000  -1301.0945      225.54637     -1526.6408      296.72993     -1898.2826      3840.7412      0.99696119
    489000  -1270.9643      239.80784     -1510.7721      315.4924       44.856449      3840.7412      0.99696119
    490000  -1342.2438      195.99785     -1538.2416      257.85576     -289.50549      3840.7412      0.99696119
    491000  -1309.9307      228.64651     -1538.5772      300.80849     -437.35729      3840.7412      0.99696119
    492000  -1269.0984      233.37335     -1502.4718      307.02715     -2064.6038      3840.7412      0.99696119
    493000  -1318.9173      214.91873     -1533.8361      282.74815      2431.6867      3840.7412      0.99696119
    494000  -1266.3483      253.03376     -1519.3821      332.89248      481.34276      3840.7412      0.99696119
    495000  -1292.4486      219.63017     -1512.0788      288.94655      602.66604      3840.7412      0.99696119
    496000  -1283.5919      222.41563     -1506.0076      292.61112      299.30814      3840.7412      0.99696119
    497000  -1310.9217      215.82467     -1526.7464      283.94001     -837.94455      3840.7412      0.99696119
    498000  -1256.3521      247.64827     -1504.0004      325.80731      1040.9364      3840.7412      0.99696119
    499000  -1281.149       245.31133     -1526.4603      322.73282      735.53485      3840.7412      0.99696119
    500000  -1323.9783      209.52892     -1533.5073      275.6573      -391.11305      3840.7412      0.99696119
    501000  -1297.9105      220.70331     -1518.6138      290.35838     -2712.2083      3840.7412      0.99696119
    502000  -1298.6436      225.67835     -1524.322       296.90357     -72.673636      3840.7412      0.99696119
    503000  -1301.2981      222.87324     -1524.1713      293.21315     -550.41446      3840.7412      0.99696119
    504000  -1337.8577      211.06628     -1548.9239      277.67986     -398.5581       3840.7412      0.99696119
    505000  -1329.8947      219.43719     -1549.3319      288.69266     -992.19838      3840.7412      0.99696119
    506000  -1286.6728      235.6413      -1522.3141      310.01088     -3270.2633      3840.7412      0.99696119
    507000  -1282.2693      222.07702     -1504.3463      292.16564      349.72608      3840.7412      0.99696119
    508000  -1281.8908      220.40573     -1502.2966      289.96688      43.668823      3840.7412      0.99696119
    509000  -1283.7991      219.26195     -1503.0611      288.46212      527.42341      3840.7412      0.99696119
    510000  -1250.58        255.75838     -1506.3384      336.47701     -589.5116       3840.7412      0.99696119
    511000  -1304.4107      224.41322     -1528.8239      295.23915     -618.14681      3840.7412      0.99696119
    512000  -1282.0673      238.67069     -1520.738       313.99635     -2428.2565      3840.7412      0.99696119
    513000  -1275.4119      233.96643     -1509.3783      307.8074       1890.4256      3840.7412      0.99696119
    514000  -1285.6399      241.91498     -1527.5549      318.26456      797.35884      3840.7412      0.99696119
    515000  -1319.9312      221.76391     -1541.6951      291.7537       466.56008      3840.7412      0.99696119
    516000  -1293.9301      240.05992     -1533.99        315.82403     -1376.9551      3840.7412      0.99696119
    517000  -1312.0097      209.00786     -1521.0176      274.97179      258.63724      3840.7412      0.99696119
    518000  -1283.0947      238.35643     -1521.4512      313.58291      856.86485      3840.7412      0.99696119
    519000  -1294.4256      238.62402     -1533.0496      313.93495     -105.83256      3840.7412      0.99696119
    520000  -1295.8622      227.37241     -1523.2346      299.13228      1605.6648      3840.7412      0.99696119
    521000  -1307.3394      226.9311      -1534.2705      298.55169     -1934.3952      3840.7412      0.99696119
    522000  -1294.5221      235.97623     -1530.4983      310.45151     -309.24735      3840.7412      0.99696119
    523000  -1271.8875      241.45768     -1513.3452      317.66293     -1600.9613      3840.7412      0.99696119
    524000  -1298.6998      241.83304     -1540.5329      318.15676     -511.05759      3840.7412      0.99696119
    525000  -1291.6716      227.14685     -1518.8184      298.83554      79.799281      3840.7412      0.99696119
    526000  -1202.2624      264.21062     -1466.473       347.59681      18.827658      3840.7412      0.99696119
    527000  -1289.7042      224.90945     -1514.6137      295.892        275.60402      3840.7412      0.99696119
    528000  -1273.9554      231.29731     -1505.2527      304.2959      -386.50768      3840.7412      0.99696119
    529000  -1294.3868      219.68898     -1514.0758      289.02392     -32.331186      3840.7412      0.99696119
    530000  -1302.6001      232.35985     -1534.9599      305.69378     -759.85025      3840.7412      0.99696119
    531000  -1307.6247      218.56473     -1526.1894      287.54485      2218.186       3840.7412      0.99696119
    532000  -1262.6247      242.07342     -1504.6981      318.473        1654.3931      3840.7412      0.99696119
    533000  -1298.8521      236.50686     -1535.3589      311.14961      981.52831      3840.7412      0.99696119
    534000  -1271.2526      265.92065     -1537.1733      349.84654      35.954415      3840.7412      0.99696119
    535000  -1335.2065      216.58995     -1551.7965      284.94683     -901.36332      3840.7412      0.99696119
    536000  -1272.1389      244.18863     -1516.3275      321.25578     -882.93672      3840.7412      0.99696119
    537000  -1310.37        213.49941     -1523.8694      280.8809      -1037.3944      3840.7412      0.99696119
    538000  -1277.8989      256.27335     -1534.1723      337.1545      -962.32905      3840.7412      0.99696119
    539000  -1291.7337      245.96756     -1537.7013      323.59615     -2317.815       3840.7412      0.99696119
    540000  -1296.1356      216.09155     -1512.2271      284.29113     -2124.9167      3840.7412      0.99696119
    541000  -1300.2796      216.0778      -1516.3574      284.27304     -1493.8282      3840.7412      0.99696119
    542000  -1293.8572      232.18701     -1526.0442      305.46639     -1075.3213      3840.7412      0.99696119
    543000  -1261.7165      232.19027     -1493.9068      305.47068      1020.5714      3840.7412      0.99696119
    544000  -1300.4998      221.72679     -1522.2266      291.70487     -428.52874      3840.7412      0.99696119
    545000  -1294.8485      221.47146     -1516.32        291.36896      71.568551      3840.7412      0.99696119
    546000  -1235.35        240.84414     -1476.1941      316.85575     -979.94433      3840.7412      0.99696119
    547000  -1313.1143      220.64389     -1533.7582      290.2802      -566.92189      3840.7412      0.99696119
    548000  -1299.9437      228.35968     -1528.3034      300.43114      371.23431      3840.7412      0.99696119
    549000  -1325.0844      211.56305     -1536.6474      278.33341     -46.741747      3840.7412      0.99696119
    550000  -1333.1316      209.83149     -1542.9631      276.05536      1215.336       3840.7412      0.99696119
    551000  -1325.2802      216.53474     -1541.8149      284.87418     -1351.3836      3840.7412      0.99696119
    552000  -1294.8656      225.34279     -1520.2084      296.4621      -1022.5496      3840.7412      0.99696119
    553000  -1338.8147      211.12388     -1549.9386      277.75563      666.91601      3840.7412      0.99696119
    554000  -1285.3181      227.6901      -1513.0082      299.55023      1306.4662      3840.7412      0.99696119
    555000  -1329.6291      218.34501     -1547.9741      287.25579     -1737.8552      3840.7412      0.99696119
    556000  -1287.9526      234.21688     -1522.1695      308.1369      -3373.746       3840.7412      0.99696119
    557000  -1275.564       223.02645     -1498.5905      293.41471     -355.82054      3840.7412      0.99696119
    558000  -1262.4821      232.52448     -1495.0065      305.91038     -168.89578      3840.7412      0.99696119
    559000  -1315.5544      224.59937     -1540.1538      295.48405      1521.4426      3840.7412      0.99696119
    560000  -1302.6648      223.09728     -1525.7621      293.5079       357.68455      3840.7412      0.99696119
    561000  -1312.7763      202.47205     -1515.2484      266.37324     -125.88826      3840.7412      0.99696119
    562000  -1311.4645      226.17543     -1537.6399      297.55753     -1657.8795      3840.7412      0.99696119
    563000  -1319.4629      208.09636     -1527.5592      273.77261     -36.008443      3840.7412      0.99696119
    564000  -1306.0716      209.37473     -1515.4464      275.45444     -170.61412      3840.7412      0.99696119
    565000  -1325.0936      211.98367     -1537.0773      278.88678     -868.15778      3840.7412      0.99696119
    566000  -1272.5726      238.0198      -1510.5924      313.14004      78.564786      3840.7412      0.99696119
    567000  -1307.8176      223.63424     -1531.4518      294.21433     -292.427        3840.7412      0.99696119
    568000  -1273.3599      238.38879     -1511.7487      313.62549     -1368.3108      3840.7412      0.99696119
    569000  -1285.8172      220.80997     -1506.6272      290.4987      -1042.5954      3840.7412      0.99696119
    570000  -1308.4974      220.56189     -1529.0592      290.17232     -64.100101      3840.7412      0.99696119
    571000  -1304.8677      207.27692     -1512.1447      272.69456     -1738.0332      3840.7412      0.99696119
    572000  -1290.4172      234.72005     -1525.1372      308.79888     -565.57563      3840.7412      0.99696119
    573000  -1281.187       231.38025     -1512.5673      304.40502     -385.00057      3840.7412      0.99696119
    574000  -1288.4994      233.61194     -1522.1114      307.34103      914.0394       3840.7412      0.99696119
    575000  -1290.9507      220.5851      -1511.5358      290.20286     -625.43996      3840.7412      0.99696119
    576000  -1329.2998      217.86001     -1547.1598      286.61772      1262.8046      3840.7412      0.99696119
    577000  -1281.0636      236.40831     -1517.4719      311.01995     -764.6898       3840.7412      0.99696119
    578000  -1301.4582      238.97274     -1540.431       314.39373      636.87317      3840.7412      0.99696119
    579000  -1280.7637      238.4284      -1519.1921      313.6776       937.77351      3840.7412      0.99696119
    580000  -1290.9368      234.73777     -1525.6745      308.82218      137.98763      3840.7412      0.99696119
    581000  -1339.3705      226.76229     -1566.1328      298.32961     -1503.0416      3840.7412      0.99696119
    582000  -1322.2146      221.35363     -1543.5682      291.21395      2169.5362      3840.7412      0.99696119
    583000  -1280.9301      255.01159     -1535.9417      335.49452     -1205.3101      3840.7412      0.99696119
    584000  -1313.9099      217.18682     -1531.0967      285.73207     -293.1274       3840.7412      0.99696119
    585000  -1275.0514      233.46807     -1508.5195      307.15176      1622.7542      3840.7412      0.99696119
    586000  -1263.8894      238.04044     -1501.9298      313.16719      3281.5497      3840.7412      0.99696119
    587000  -1306.266       234.32575     -1540.5918      308.28013     -217.23314      3840.7412      0.99696119
    588000  -1312.1896      236.31542     -1548.505       310.89776      634.94205      3840.7412      0.99696119
    589000  -1290.6147      222.12751     -1512.7422      292.23206     -237.06018      3840.7412      0.99696119
    590000  -1284.296       239.60726     -1523.9032      315.22851      250.68944      3840.7412      0.99696119
    591000  -1287.7371      223.30921     -1511.0463      293.78672      942.4741       3840.7412      0.99696119
    592000  -1314.6213      247.50488     -1562.1262      325.61867      420.03387      3840.7412      0.99696119
    593000  -1340.7714      223.43203     -1564.2034      293.9483       1518.0212      3840.7412      0.99696119
    594000  -1318.1535      213.88958     -1532.0431      281.3942      -317.8134       3840.7412      0.99696119
    595000  -1347.3801      222.52966     -1569.9097      292.76113      490.31284      3840.7412      0.99696119
    596000  -1343.1016      223.47559     -1566.5772      294.0056       508.87329      3840.7412      0.99696119
    597000  -1305.3548      210.92146     -1516.2762      277.48933     -1919.9264      3840.7412      0.99696119
    598000  -1327.3981      210.58317     -1537.9813      277.04427      49.285568      3840.7412      0.99696119
    599000  -1290.3614      228.16465     -1518.5261      300.17455      661.48807      3840.7412      0.99696119
    600000  -1304.8125      232.49297     -1537.3054      305.86891     -2253.0218      3840.7412      0.99696119
    601000  -1285.0517      233.67805     -1518.7297      307.42802     -1033.1831      3840.7412      0.99696119
    602000  -1278.5095      231.11176     -1509.6212      304.05179     -734.64353      3840.7412      0.99696119
    603000  -1324.0472      205.33279     -1529.38        270.13685      1425.6827      3840.7412      0.99696119
    604000  -1304.3824      236.08402     -1540.4664      310.59332     -146.2606       3840.7412      0.99696119
    605000  -1285.2489      227.74826     -1512.9972      299.62676      74.69977       3840.7412      0.99696119
    606000  -1271.3348      229.12944     -1500.4642      301.44384     -954.61539      3840.7412      0.99696119
    607000  -1329.4119      207.16938     -1536.5813      272.55308     -586.5251       3840.7412      0.99696119
    608000  -1298.4057      216.79402     -1515.1997      285.2153      -1889.7396      3840.7412      0.99696119
    609000  -1259.3376      234.49296     -1493.8306      308.50012     -388.55819      3840.7412      0.99696119
    610000  -1305.213       211.24484     -1516.4578      277.91477     -1183.6624      3840.7412      0.99696119
    611000  -1265.6052      242.06726     -1507.6725      318.4649       2590.3751      3840.7412      0.99696119
    612000  -1240.9276      245.43128     -1486.3589      322.89062      1583.4712      3840.7412      0.99696119
    613000  -1281.059       233.49903     -1514.558       307.19249      1892.336       3840.7412      0.99696119
    614000  -1313.4359      212.88411     -1526.32        280.07141      1171.8775      3840.7412      0.99696119
    615000  -1285.3375      227.83284     -1513.1703      299.73802      732.11263      3840.7412      0.99696119
    616000  -1311.9063      200.90018     -1512.8065      264.30528     -634.32745      3840.7412      0.99696119
    617000  -1297.5867      235.62367     -1533.2103      309.98767      505.76813      3840.7412      0.99696119
    618000  -1308.9461      205.38182     -1514.3279      270.20136     -238.61702      3840.7412      0.99696119
    619000  -1271.9646      229.56763     -1501.5322      302.02032     -1078.4312      3840.7412      0.99696119
    620000  -1308.3519      223.19791     -1531.5498      293.64029     -1382.7189      3840.7412      0.99696119
    621000  -1271.8112      227.86703     -1499.6782      299.783       -1000.5054      3840.7412      0.99696119
    622000  -1313.3794      218.58079     -1531.9602      287.56598      53.378618      3840.7412      0.99696119
    623000  -1305.9582      221.79748     -1527.7557      291.79787     -1383.7429      3840.7412      0.99696119
    624000  -1267.7466      237.55659     -1505.3032      312.53064      9.0292353      3840.7412      0.99696119
    625000  -1279.6116      225.60912     -1505.2207      296.81249     -1007.2496      3840.7412      0.99696119
    626000  -1308.0406      216.3812      -1524.4218      284.67219     -456.60379      3840.7412      0.99696119
    627000  -1287.1807      228.96131     -1516.142       301.22264      412.77006      3840.7412      0.99696119
    628000  -1299.164       228.99272     -1528.1567      301.26398      320.42212      3840.7412      0.99696119
    629000  -1304.1477      211.19937     -1515.347       277.85495     -1280.0124      3840.7412      0.99696119
    630000  -1314.0614      215.05544     -1529.1169      282.92802     -59.721124      3840.7412      0.99696119
    631000  -1294.0786      231.7388      -1525.8174      304.87673      2000.4142      3840.7412      0.99696119
    632000  -1307.5553      220.09266     -1527.6479      289.55501     -1125.1689      3840.7412      0.99696119
    633000  -1318.9877      224.88026     -1543.8679      295.8536      -11.586953      3840.7412      0.99696119
    634000  -1312.1399      220.72605     -1532.866       290.38829     -587.27721      3840.7412      0.99696119
    635000  -1297.934       233.32142     -1531.2554      306.95883     -307.58914      3840.7412      0.99696119
    636000  -1282.3201      225.40865     -1507.7287      296.54875     -2666.5906      3840.7412      0.99696119
    637000  -1273.5297      237.00187     -1510.5316      311.80085     -2484.9268      3840.7412      0.99696119
    638000  -1325.9967      203.12087     -1529.1175      267.22683     -1125.4482      3840.7412      0.99696119
    639000  -1319.1824      230.42526     -1549.6076      303.14863     -1403.8887      3840.7412      0.99696119
    640000  -1274.9973      224.40524     -1499.4025      295.22866      1941.7557      3840.7412      0.99696119
    641000  -1320.5427      214.32695     -1534.8697      281.9696      -1734.611       3840.7412      0.99696119
    642000  -1255.0516      229.26024     -1484.3118      301.61592     -101.22913      3840.7412      0.99696119
    643000  -1315.2783      222.87954     -1538.1579      293.22144     -1229.855       3840.7412      0.99696119
    644000  -1293.8652      227.59508     -1521.4603      299.42523     -341.2602       3840.7412      0.99696119
    645000  -1312.0061      209.49545     -1521.5015      275.61327     -895.46553      3840.7412      0.99696119
    646000  -1252.8235      246.17652     -1499           323.87106      783.87207      3840.7412      0.99696119
    647000  -1237.2747      207.21736     -1444.4921      272.6162       543.95449      3840.7412      0.99696119
    648000  -1288.1654      232.38431     -1520.5497      305.72596     -797.46738      3840.7412      0.99696119
    649000  -1286.5573      222.88383     -1509.4411      293.22708      1484.5047      3840.7412      0.99696119
    650000  -1325.4672      215.8624      -1541.3296      283.98966     -524.13288      3840.7412      0.99696119
[...]
   2842000  -1278.5148      231.39103     -1509.9058      304.4192      -464.33693      3840.7412      0.99696119
   2843000  -1294.9717      226.0681      -1521.0398      297.41633      1399.4352      3840.7412      0.99696119
   2844000  -1318.0782      199.23764     -1517.3158      262.11804     -600.76227      3840.7412      0.99696119
   2845000  -1327.7169      231.19713     -1558.9141      304.1641      -1204.9055      3840.7412      0.99696119
   2846000  -1284.3997      244.56195     -1528.9617      321.74693      1168.7839      3840.7412      0.99696119
   2847000  -1294.6445      222.4284      -1517.0729      292.62792     -161.3593       3840.7412      0.99696119
   2848000  -1298.5731      234.16478     -1532.7379      308.06836     -1668.9854      3840.7412      0.99696119
   2849000  -1259.5364      227.32766     -1486.8641      299.07341     -707.23292      3840.7412      0.99696119
   2850000  -1271.2898      228.97193     -1500.2617      301.23662      1325.5718      3840.7412      0.99696119
   2851000  -1304.7806      221.56053     -1526.3412      291.48614     -364.37428      3840.7412      0.99696119
   2852000  -1305.3334      214.25006     -1519.5835      281.86845     -104.81171      3840.7412      0.99696119
   2853000  -1303.3151      222.37464     -1525.6897      292.55718      172.24019      3840.7412      0.99696119
   2854000  -1349.2368      205.91332     -1555.1501      270.90059     -2508.002       3840.7412      0.99696119
   2855000  -1269.1115      231.9166      -1501.0281      305.11064     -523.13227      3840.7412      0.99696119
   2856000  -1311.3341      198.11642     -1509.4505      260.64296     -808.5743       3840.7412      0.99696119
   2857000  -1296.7948      222.2096      -1519.0044      292.34007     -1596.2062      3840.7412      0.99696119
   2858000  -1265.8676      232.23604     -1498.1036      305.5309      -28.377215      3840.7412      0.99696119
   2859000  -1320.9341      212.58707     -1533.5212      279.68062     -8.6989179      3840.7412      0.99696119
   2860000  -1293.12        211.4714      -1504.5914      278.21283     -1536.5022      3840.7412      0.99696119
   2861000  -1275.2804      235.74612     -1511.0265      310.14878      325.95361      3840.7412      0.99696119
   2862000  -1289.5125      221.83711     -1511.3496      291.85001      502.67508      3840.7412      0.99696119
   2863000  -1311.4507      219.16319     -1530.6139      288.33218     -1234.6073      3840.7412      0.99696119
   2864000  -1327.2927      225.12085     -1552.4135      296.17012     -1326.9008      3840.7412      0.99696119
   2865000  -1302.709       229.26701     -1531.976       301.62483     -707.07832      3840.7412      0.99696119
   2866000  -1292.1807      216.37828     -1508.5589      284.66835     -156.28212      3840.7412      0.99696119
   2867000  -1261.7799      223.76884     -1485.5488      294.39141      1544.5459      3840.7412      0.99696119
   2868000  -1305.7617      216.9012      -1522.6629      285.35631     -472.26741      3840.7412      0.99696119
   2869000  -1306.4679      240.36126     -1546.8292      316.22048      129.83793      3840.7412      0.99696119
   2870000  -1311.9452      225.98253     -1537.9278      297.30375      1200.7728      3840.7412      0.99696119
   2871000  -1326.983       223.54927     -1550.5323      294.10254     -1321.9016      3840.7412      0.99696119
   2872000  -1292.0488      250.98676     -1543.0356      330.19944      294.61703      3840.7412      0.99696119
   2873000  -1285.4397      221.36491     -1506.8046      291.22878      1448.1226      3840.7412      0.99696119
   2874000  -1278.8727      229.07042     -1507.9431      301.36619     -903.57619      3840.7412      0.99696119
   2875000  -1300.4974      211.98953     -1512.4869      278.89449      299.44528      3840.7412      0.99696119
   2876000  -1295.9312      244.68881     -1540.62        321.91383      303.00884      3840.7412      0.99696119
   2877000  -1304.9184      218.60304     -1523.5214      287.59526     -873.35843      3840.7412      0.99696119
   2878000  -1321.9316      197.31593     -1519.2475      259.58982     -454.28324      3840.7412      0.99696119
   2879000  -1282.8271      254.26237     -1537.0895      334.50884      697.0907       3840.7412      0.99696119
   2880000  -1309.5583      212.08835     -1521.6467      279.02449      79.891932      3840.7412      0.99696119
   2881000  -1309.0094      200.65439     -1509.6638      263.98192     -60.030369      3840.7412      0.99696119
   2882000  -1292.9756      226.98048     -1519.9561      298.61666      153.12903      3840.7412      0.99696119
   2883000  -1302.8863      208.59964     -1511.486       274.43473     -1791.4536      3840.7412      0.99696119
   2884000  -1258.5921      242.02008     -1500.6122      318.40282     -2354.5738      3840.7412      0.99696119
   2885000  -1300.6228      245.62525     -1546.2481      323.1458      -120.45324      3840.7412      0.99696119
   2886000  -1289.3501      228.15629     -1517.5064      300.16356     -722.76288      3840.7412      0.99696119
   2887000  -1328.0088      193.47119     -1521.48        254.53167      582.2412       3840.7412      0.99696119
   2888000  -1282.0116      224.85103     -1506.8626      295.81513      2507.2286      3840.7412      0.99696119
   2889000  -1332.4104      211.22362     -1543.634       277.88686     -1663.8937      3840.7412      0.99696119
   2890000  -1279.9606      232.28963     -1512.2503      305.60141     -1169.2263      3840.7412      0.99696119
   2891000  -1272.6971      218.27604     -1490.9731      287.16505     -261.13011      3840.7412      0.99696119
   2892000  -1325.2847      213.92856     -1539.2133      281.44549      216.50351      3840.7412      0.99696119
   2893000  -1281.6388      247.1048      -1528.7436      325.09232     -935.58537      3840.7412      0.99696119
   2894000  -1302.1173      223.58194     -1525.6992      294.14553      1402.57        3840.7412      0.99696119
   2895000  -1283.3739      231.02262     -1514.3965      303.93452     -52.61566       3840.7412      0.99696119
   2896000  -1237.3544      245.59038     -1482.9447      323.09993      184.726        3840.7412      0.99696119
   2897000  -1276.2228      231.7681      -1507.9909      304.91527      76.06498       3840.7412      0.99696119
   2898000  -1321.129       199.57114     -1520.7002      262.5568      -1422.8393      3840.7412      0.99696119
   2899000  -1318.5982      222.39878     -1540.997       292.58895      258.32168      3840.7412      0.99696119
   2900000  -1284.2402      220.47674     -1504.717       290.06031      646.71283      3840.7412      0.99696119
   2901000  -1312.71        216.60469     -1529.3147      284.96622     -1274.1859      3840.7412      0.99696119
   2902000  -1262.1983      250.48591     -1512.6842      329.54051     -105.11767      3840.7412      0.99696119
   2903000  -1310.612       209.14148     -1519.7535      275.14758     -536.21624      3840.7412      0.99696119
   2904000  -1302.6968      226.75855     -1529.4553      298.32469     -1342.9899      3840.7412      0.99696119
   2905000  -1266.2177      226.36101     -1492.5788      297.80168      1760.0106      3840.7412      0.99696119
   2906000  -1298.0415      240.22079     -1538.2623      316.03567     -823.55253      3840.7412      0.99696119
   2907000  -1261.9187      247.25916     -1509.1778      325.29538     -1418.8096      3840.7412      0.99696119
   2908000  -1298.8367      221.60074     -1520.4374      291.53904     -1444.9316      3840.7412      0.99696119
   2909000  -1310.0707      214.99872     -1525.0694      282.85339      934.16447      3840.7412      0.99696119
   2910000  -1290.4083      221.15405     -1511.5623      290.95137     -964.22453      3840.7412      0.99696119
   2911000  -1283.4425      242.17618     -1525.6187      318.6082      -527.12125      3840.7412      0.99696119
   2912000  -1280.7704      227.3008      -1508.0712      299.03807     -1965.5646      3840.7412      0.99696119
   2913000  -1342.6146      223.80536     -1566.42        294.43945      94.496628      3840.7412      0.99696119
   2914000  -1338.0342      206.12755     -1544.1617      271.18243      247.79969      3840.7412      0.99696119
   2915000  -1295.2783      216.83068     -1512.109       285.26353      501.06164      3840.7412      0.99696119
   2916000  -1303.5749      202.90296     -1506.4779      266.94015      403.47858      3840.7412      0.99696119
   2917000  -1354.4404      207.09799     -1561.5384      272.45916      905.12026      3840.7412      0.99696119
   2918000  -1303.4585      215.0561      -1518.5146      282.92889     -1411.6413      3840.7412      0.99696119
   2919000  -1276.3257      223.12504     -1499.4508      293.54442      839.9344       3840.7412      0.99696119
   2920000  -1315.61        222.04594     -1537.6559      292.12475      563.45074      3840.7412      0.99696119
   2921000  -1284.402       229.25482     -1513.6568      301.60878     -88.854954      3840.7412      0.99696119
   2922000  -1343.9294      228.94541     -1572.8748      301.20173     -236.87513      3840.7412      0.99696119
   2923000  -1303.9949      220.11588     -1524.1108      289.58555     -265.12538      3840.7412      0.99696119
   2924000  -1289.5251      216.59441     -1506.1195      284.9527      -2.2286659      3840.7412      0.99696119
   2925000  -1324.5352      226.63893     -1551.1742      298.16731      101.87649      3840.7412      0.99696119
   2926000  -1293.1247      238.90508     -1532.0298      314.30473      305.12346      3840.7412      0.99696119
   2927000  -1304.8041      223.33891     -1528.143       293.82578     -105.35659      3840.7412      0.99696119
   2928000  -1277.6958      240.23376     -1517.9295      316.05274     -1560.5478      3840.7412      0.99696119
   2929000  -1282.0234      255.66928     -1537.6927      336.35979     -872.02616      3840.7412      0.99696119
   2930000  -1313.9456      215.50105     -1529.4467      283.51426      1440.4662      3840.7412      0.99696119
   2931000  -1284.4162      237.07146     -1521.4877      311.8924      -1734.6269      3840.7412      0.99696119
   2932000  -1279.7009      234.35386     -1514.0547      308.31712      981.57369      3840.7412      0.99696119
   2933000  -1306.9769      229.69634     -1536.6733      302.18966     -1886.4958      3840.7412      0.99696119
   2934000  -1274.9279      235.29896     -1510.2268      309.56049      137.21847      3840.7412      0.99696119
   2935000  -1316.0006      222.41104     -1538.4117      292.60508     -736.67037      3840.7412      0.99696119
   2936000  -1309.6746      217.67121     -1527.3458      286.36933      1328.0455      3840.7412      0.99696119
   2937000  -1296.194       217.35273     -1513.5467      285.95035      561.18431      3840.7412      0.99696119
   2938000  -1275.8555      214.89585     -1490.7514      282.71805      802.56391      3840.7412      0.99696119
   2939000  -1295.4807      225.08398     -1520.5647      296.12161     -619.03038      3840.7412      0.99696119
   2940000  -1280.261       219.60358     -1499.8646      288.91157     -695.76407      3840.7412      0.99696119
   2941000  -1270.9242      228.93092     -1499.8551      301.18266      3275.5783      3840.7412      0.99696119
   2942000  -1261.1427      227.04208     -1488.1848      298.6977       295.19937      3840.7412      0.99696119
   2943000  -1282.0318      226.2562      -1508.288       297.6638      -1371.9271      3840.7412      0.99696119
   2944000  -1313.8159      221.35193     -1535.1679      291.21171      1029.2156      3840.7412      0.99696119
   2945000  -1273.025       245.35877     -1518.3837      322.79522      70.829577      3840.7412      0.99696119
   2946000  -1318.8016      218.45416     -1537.2558      287.39939     -1117.306       3840.7412      0.99696119
   2947000  -1326.3223      230.98638     -1557.3087      303.88684     -1100.7323      3840.7412      0.99696119
   2948000  -1277.1299      231.78376     -1508.9137      304.93587     -820.67927      3840.7412      0.99696119
   2949000  -1274.4731      234.84869     -1509.3218      308.96811     -765.8208       3840.7412      0.99696119
   2950000  -1282.8263      226.58221     -1509.4085      298.09269      162.21004      3840.7412      0.99696119
   2951000  -1293.2928      226.93763     -1520.2304      298.56029     -766.05328      3840.7412      0.99696119
   2952000  -1303.658       233.35519     -1537.0132      307.00325     -205.12534      3840.7412      0.99696119
   2953000  -1330.6438      208.18717     -1538.831       273.89208      988.13754      3840.7412      0.99696119
   2954000  -1324.9774      231.31209     -1556.2895      304.31534     -2547.7956      3840.7412      0.99696119
   2955000  -1251.6992      240.45842     -1492.1576      316.3483       353.83246      3840.7412      0.99696119
   2956000  -1296.3055      247.63138     -1543.9369      325.78508     -2305.7499      3840.7412      0.99696119
   2957000  -1307.3658      226.38152     -1533.7473      297.82866     -1332.7776      3840.7412      0.99696119
   2958000  -1290.2583      224.35939     -1514.6177      295.16834      737.95978      3840.7412      0.99696119
   2959000  -1315.6282      229.78183     -1545.41        302.30213     -1223.8776      3840.7412      0.99696119
   2960000  -1301.704       216.07897     -1517.7829      284.27457     -1202.372       3840.7412      0.99696119
   2961000  -1321.1199      254.36354     -1575.4835      334.64195      686.3877       3840.7412      0.99696119
   2962000  -1311.0182      231.71039     -1542.7286      304.83935      710.68319      3840.7412      0.99696119
   2963000  -1321.7493      231.94427     -1553.6936      305.14705      215.1433       3840.7412      0.99696119
   2964000  -1317.7688      198.39198     -1516.1608      261.00548     -202.36327      3840.7412      0.99696119
   2965000  -1298.3537      244.84798     -1543.2017      322.12323     -979.23464      3840.7412      0.99696119
   2966000  -1305.0322      236.39292     -1541.4252      310.99971      61.379993      3840.7412      0.99696119
   2967000  -1303.2709      228.57687     -1531.8478      300.71688      200.63328      3840.7412      0.99696119
   2968000  -1301.0589      216.97768     -1518.0366      285.45693      491.82647      3840.7412      0.99696119
   2969000  -1278.8862      226.25262     -1505.1388      297.65907      584.42514      3840.7412      0.99696119
   2970000  -1304.3873      203.77765     -1508.1649      268.0909      -593.17666      3840.7412      0.99696119
   2971000  -1316.3144      238.85716     -1555.1715      314.24168      1482.3518      3840.7412      0.99696119
   2972000  -1309.1233      230.53066     -1539.6539      303.28729      792.60614      3840.7412      0.99696119
   2973000  -1273.776       242.99624     -1516.7723      319.68708     -633.73642      3840.7412      0.99696119
   2974000  -1280.6157      220.80263     -1501.4183      290.48905      918.00526      3840.7412      0.99696119
   2975000  -1276.2508      230.53139     -1506.7822      303.28825      274.00237      3840.7412      0.99696119
   2976000  -1292.3579      233.1679      -1525.5258      306.75686     -188.54665      3840.7412      0.99696119
   2977000  -1264.4578      241.34161     -1505.7994      317.51022      129.00181      3840.7412      0.99696119
   2978000  -1304.7829      217.60574     -1522.3887      286.2832       4.4775903      3840.7412      0.99696119
   2979000  -1272.1832      245.29453     -1517.4777      322.71071     -361.10857      3840.7412      0.99696119
   2980000  -1304.4964      197.22939     -1501.7257      259.47598     -564.51766      3840.7412      0.99696119
   2981000  -1288.7955      229.9079      -1518.7034      302.46798      1254.3515      3840.7412      0.99696119
   2982000  -1308.6849      229.71282     -1538.3977      302.21134      1480.8956      3840.7412      0.99696119
   2983000  -1312.681       239.2924      -1551.9734      314.81429     -166.82424      3840.7412      0.99696119
   2984000  -1288.0327      213.5675      -1501.6002      280.97047     -675.40228      3840.7412      0.99696119
   2985000  -1276.9149      223.29468     -1500.2096      293.7676      -1773.7657      3840.7412      0.99696119
   2986000  -1289.3817      220.50052     -1509.8822      290.09159     -1972.3239      3840.7412      0.99696119
   2987000  -1334.2656      213.55816     -1547.8237      280.95818     -111.39216      3840.7412      0.99696119
   2988000  -1284.1017      247.36827     -1531.47        325.43893     -1385.7794      3840.7412      0.99696119
   2989000  -1255.7539      257.92674     -1513.6807      339.32971      293.37058      3840.7412      0.99696119
   2990000  -1299.3556      213.17057     -1512.5262      280.44827      889.81494      3840.7412      0.99696119
   2991000  -1268.0807      240.56076     -1508.6414      316.48294      25.359946      3840.7412      0.99696119
   2992000  -1296.9787      237.93562     -1534.9143      313.02929     -2225.3652      3840.7412      0.99696119
   2993000  -1310.0616      220.0133      -1530.0749      289.45059     -931.47301      3840.7412      0.99696119
   2994000  -1276.5446      220.0368      -1496.5814      289.48152      380.39362      3840.7412      0.99696119
   2995000  -1278.1437      233.43674     -1511.5804      307.11055     -840.21637      3840.7412      0.99696119
   2996000  -1239.0603      269.00866     -1508.0689      353.90914     -1335.6602      3840.7412      0.99696119
   2997000  -1277.133       216.99243     -1494.1255      285.47633     -644.0656       3840.7412      0.99696119
   2998000  -1266.9262      228.17718     -1495.1034      300.19104     -1500.9667      3840.7412      0.99696119
   2999000  -1305.9066      214.53894     -1520.4455      282.24851     -1035.2668      3840.7412      0.99696119
   3000000  -1288.446       234.32424     -1522.7702      308.27814      1339.9204      3840.7412      0.99696119
Loop time of 2324.58 on 2 procs for 2000000 steps with 384 atoms

Performance: 74.336 ns/day, 0.323 hours/ns, 860.371 timesteps/s
99.7% CPU use with 2 MPI tasks x 1 OpenMP threads

MPI task timing breakdown:
Section |  min time  |  avg time  |  max time  |%varavg| %total
---------------------------------------------------------------
Pair    | 1511.4     | 1513.2     | 1515.1     |   4.8 | 65.10
Bond    | 0.16698    | 0.17934    | 0.19171    |   2.9 |  0.01
Kspace  | 436.23     | 437.44     | 438.65     |   5.8 | 18.82
Neigh   | 107.07     | 107.07     | 107.08     |   0.0 |  4.61
Comm    | 154.35     | 155.02     | 155.68     |   5.4 |  6.67
Output  | 0.52205    | 0.52697    | 0.53189    |   0.7 |  0.02
Modify  | 104.83     | 105.02     | 105.2      |   1.8 |  4.52
Other   |            | 6.083      |            |       |  0.26

Nlocal:            192 ave         196 max         188 min
Histogram: 1 0 0 0 0 0 0 0 0 1
Nghost:         4903.5 ave        4918 max        4889 min
Histogram: 1 0 0 0 0 0 0 0 0 1
Neighs:          69279 ave       70410 max       68148 min
Histogram: 1 0 0 0 0 0 0 0 0 1

Total # of neighbors = 138558
Ave neighs/atom = 360.82812
Ave special neighs/atom = 2
Neighbor list builds = 66736
Dangerous builds = 0

# write data file
write_data data.after_prod.lmp
System init for write_data ...
PPPM initialization ...
  using 12-bit tables for long-range coulomb (src/kspace.cpp:342)
  G vector (1/distance) = 0.31203871
  grid = 15 15 15
  stencil order = 5
  estimated absolute RMS force accuracy = 0.0022228175
  estimated relative force accuracy = 6.6939488e-06
  using double precision FFTW3
  3d grid and FFT values/proc = 6776 1800
Generated 1 of 1 mixed pair_coeff terms from geometric mixing rule

# clean up
undump dPROD
unfix fTHERMO
unfix fMOM
unfix fSHAKE
Total wall time: 0:58:06
