LAMMPS (23 Jun 2022 - Update 4)
  using 1 OpenMP thread(s) per MPI task
# created by fftool

# System settings
units real
boundary p p p  # Periodic boundary conditions

# definition of atoms, bonds, angles
atom_style full
bond_style harmonic
angle_style harmonic

# definition of pair potentials
special_bonds lj/coul 0.0 0.0 0.5
pair_style lj/cut/coul/long 10.0 10.0
pair_modify mix geometric tail yes
kspace_style pppm 1.0e-5

# read data file
read_data data.lmp
Reading data file ...
  orthogonal box = (0 0 0) to (12.42973 12.42973 12.42973)
  1 by 1 by 1 MPI processor grid
  reading atoms ...
  192 atoms
  scanning bonds ...
  1 = max bonds/atom
  scanning angles ...
  1 = max angles/atom
  reading bonds ...
  128 bonds
  reading angles ...
  64 angles
Finding 1-2 1-3 1-4 neighbors ...
  special bond factors lj:    0        0        0.5
  special bond factors coul:  0        0        0.5
     2 = max # of 1-2 neighbors
     1 = max # of 1-3 neighbors
     1 = max # of 1-4 neighbors
     2 = max # of special neighbors
  special bonds CPU = 0.000 seconds
  read_data CPU = 0.005 seconds

# definition of LJ parameters
pair_coeff    1    1     0.000000     0.000000  # Hw Hw
pair_coeff    2    2     0.163785     3.164813  # Ow-Ow

############################################

# remove energy hotspots
minimize 1.0e-4 1.0e-6 100 1000
WARNING: Using 'neigh_modify every 1 delay 0 check yes' setting during minimization (src/min.cpp:187)
PPPM initialization ...
  using 12-bit tables for long-range coulomb (src/kspace.cpp:342)
  G vector (1/distance) = 0.31260513
  grid = 12 12 12
  stencil order = 5
  estimated absolute RMS force accuracy = 0.0021455329
  estimated relative force accuracy = 6.4612085e-06
  using double precision FFTW3
  3d grid and FFT values/proc = 6859 1728
Generated 1 of 1 mixed pair_coeff terms from geometric mixing rule
Neighbor list info ...
  update every 1 steps, delay 0 steps, check yes
  max neighbors/atom: 2000, page size: 100000
  master list distance cutoff = 12
  ghost atom cutoff = 12
  binsize = 6, bins = 3 3 3
  1 neighbor lists, perpetual/occasional/extra = 1 0 0
  (1) pair lj/cut/coul/long, perpetual
      attributes: half, newton on
      pair build: half/bin/newton
      stencil: half/bin/3d
      bin: standard
Per MPI rank memory allocation (min/avg/max) = 8.742 | 8.742 | 8.742 Mbytes
   Step          Temp          E_pair         E_mol          TotEng         Press
         0   0              4979.5933      2.315326e-07   4979.5933      734869.85
       100   0             -983.37584      82.011802     -901.36404     -7396.1736
Loop time of 0.216308 on 1 procs for 100 steps with 192 atoms

99.6% CPU use with 1 MPI tasks x 1 OpenMP threads

Minimization stats:
  Stopping criterion = max iterations
  Energy initial, next-to-last, final =
      4979.59333636473   -899.92245525249  -901.364042402309
  Force two-norm initial, final = 26027.048 27.646008
  Force max component initial, final = 16462.539 5.2202275
  Final line search alpha, max atom move = 0.0038995988 0.020356793
  Iterations, force evaluations = 100 179

MPI task timing breakdown:
Section |  min time  |  avg time  |  max time  |%varavg| %total
---------------------------------------------------------------
Pair    | 0.18628    | 0.18628    | 0.18628    |   0.0 | 86.12
Bond    | 0.00069054 | 0.00069054 | 0.00069054 |   0.0 |  0.32
Kspace  | 0.021021   | 0.021021   | 0.021021   |   0.0 |  9.72
Neigh   | 0.0049268  | 0.0049268  | 0.0049268  |   0.0 |  2.28
Comm    | 0.002453   | 0.002453   | 0.002453   |   0.0 |  1.13
Output  | 1.2035e-05 | 1.2035e-05 | 1.2035e-05 |   0.0 |  0.01
Modify  | 0          | 0          | 0          |   0.0 |  0.00
Other   |            | 0.0009222  |            |       |  0.43

Nlocal:            192 ave         192 max         192 min
Histogram: 1 0 0 0 0 0 0 0 0 0
Nghost:           4698 ave        4698 max        4698 min
Histogram: 1 0 0 0 0 0 0 0 0 0
Neighs:          69109 ave       69109 max       69109 min
Histogram: 1 0 0 0 0 0 0 0 0 0

Total # of neighbors = 69109
Ave neighs/atom = 359.94271
Ave special neighs/atom = 2
Neighbor list builds = 4
Dangerous builds = 0
reset_timestep 0

# constrain water bonds and angles
fix fSHAKE all shake 0.0001 20 0 b 1 a 1
       0 = # of size 2 clusters
       0 = # of size 3 clusters
       0 = # of size 4 clusters
      64 = # of frozen angles
  find clusters CPU = 0.000 seconds

# remove Center of Mass movement every 100 steps
fix fMOM all momentum 100 linear 1 1 1

# define the neighbor list
neighbor 2.0 bin

# IMPORTANT: timestep and temperature and pressure
timestep 1.0
variable vTK equal 298.15
variable vPBAR equal 1.0

# randomize velocities
velocity all create ${vTK} 94711
velocity all create 298.15 94711

# thermostat (solving the ODE)
fix fTHERMO all nvt temp ${vTK} ${vTK} 100
fix fTHERMO all nvt temp 298.15 ${vTK} 100
fix fTHERMO all nvt temp 298.15 298.15 100

# print settings
thermo 1000
thermo_style custom step etotal ke pe temp press vol density
# trajectory output
dump dEQUI all custom 1000 equi.lammpstrj id element xu yu zu
dump_modify dEQUI element H O sort id

# equilibration
# 1 ns
run 1000000
PPPM initialization ...
  using 12-bit tables for long-range coulomb (src/kspace.cpp:342)
  G vector (1/distance) = 0.31260513
  grid = 12 12 12
  stencil order = 5
  estimated absolute RMS force accuracy = 0.0021455329
  estimated relative force accuracy = 6.4612085e-06
  using double precision FFTW3
  3d grid and FFT values/proc = 6859 1728
Generated 1 of 1 mixed pair_coeff terms from geometric mixing rule
Per MPI rank memory allocation (min/avg/max) = 9.759 | 9.759 | 9.759 Mbytes
   Step         TotEng         KinEng         PotEng          Temp          Press          Volume        Density
         0  -870.50732      112.86852     -983.37584      298.15         2311.0743      1920.3708      0.9969611
      1000  -638.17354      117.97096     -756.1445       311.62844      304.8247       1920.3708      0.9969611
      2000  -661.05391      113.62085     -774.67476      300.13734      649.02413      1920.3708      0.9969611
      3000  -645.11863      110.76317     -755.8818       292.58856      787.2814       1920.3708      0.9969611
      4000  -665.29322      103.60324     -768.89647      273.67513      578.71863      1920.3708      0.9969611
      5000  -633.69377      117.54728     -751.24105      310.50927      4489.0334      1920.3708      0.9969611
      6000  -664.79732      104.84857     -769.64589      276.96474      2439.5335      1920.3708      0.9969611
      7000  -653.13153      114.38886     -767.5204       302.16609     -1400.2349      1920.3708      0.9969611
      8000  -618.40835      135.52956     -753.93791      358.01069     -2076.2574      1920.3708      0.9969611
      9000  -645.2434       109.72161     -754.96502      289.83723     -64.812763      1920.3708      0.9969611
     10000  -635.01457      121.90192     -756.91648      322.01234     -2411.9647      1920.3708      0.9969611
     11000  -637.19659      140.87127     -778.06786      372.1212       478.66396      1920.3708      0.9969611
     12000  -650.61914      107.15849     -757.77763      283.06656      169.90358      1920.3708      0.9969611
     13000  -651.52622      107.47966     -759.00588      283.91495     -448.60268      1920.3708      0.9969611
     14000  -651.20068      120.88281     -772.08349      319.32029     -844.21922      1920.3708      0.9969611
     15000  -673.91575      112.89881     -786.81457      298.23001      3726.3431      1920.3708      0.9969611
     16000  -643.41734      113.78155     -757.1989       300.56183      111.90725      1920.3708      0.9969611
     17000  -666.44927      100.12195     -766.57122      264.47906     -2160.5759      1920.3708      0.9969611
     18000  -631.13185      118.13866     -749.27051      312.07144     -493.57873      1920.3708      0.9969611
     19000  -646.63238      114.12559     -760.75797      301.47063      1029.4373      1920.3708      0.9969611
     20000  -648.24164      102.80834     -751.04998      271.57532      2041.0483      1920.3708      0.9969611
     21000  -650.29931      118.42259     -768.7219       312.82147      150.65371      1920.3708      0.9969611
     22000  -648.92037      122.64742     -771.56779      323.98164      1580.5001      1920.3708      0.9969611
     23000  -658.06974      114.86007     -772.92981      303.4108       162.424        1920.3708      0.9969611
     24000  -678.71687      110.79868     -789.51554      292.68237      1608.5774      1920.3708      0.9969611
     25000  -656.33728      122.2542      -778.59148      322.94293     -101.89521      1920.3708      0.9969611
     26000  -669.67388      123.12745     -792.80133      325.24968     -2724.9679      1920.3708      0.9969611
     27000  -662.11334      119.21332     -781.32666      314.91022      1616.3768      1920.3708      0.9969611
     28000  -646.91768      115.60798     -762.52567      305.38648      742.76635      1920.3708      0.9969611
     29000  -678.09263      105.35414     -783.44676      278.30023     -3866.7633      1920.3708      0.9969611
     30000  -655.42145      116.0538      -771.47526      306.56415      2142.6963      1920.3708      0.9969611
     31000  -669.37982      110.99621     -780.37602      293.20415     -1138.5555      1920.3708      0.9969611
     32000  -648.5364       105.89304     -754.42944      279.72378     -232.89827      1920.3708      0.9969611
     33000  -628.73709      111.63151     -740.3686       294.88235      837.11163      1920.3708      0.9969611
     34000  -626.61392      120.61809     -747.23201      318.62102     -1868.812       1920.3708      0.9969611
     35000  -635.48925      116.21525     -751.7045       306.99062     -957.65709      1920.3708      0.9969611
     36000  -659.3554       104.84305     -764.19845      276.95016     -4519.9608      1920.3708      0.9969611
     37000  -631.239        119.4276      -750.6666       315.47627     -2844.7232      1920.3708      0.9969611
     38000  -651.9276       98.733351     -750.66095      260.81097     -714.49058      1920.3708      0.9969611
     39000  -636.36702      113.01296     -749.37998      298.53154     -3.4761786      1920.3708      0.9969611
     40000  -652.45493      119.97861     -772.43354      316.93178      277.0022       1920.3708      0.9969611
     41000  -637.53103      109.50767     -747.03869      289.27207      1843.7636      1920.3708      0.9969611
     42000  -662.57911      108.82664     -771.40575      287.47309      640.40637      1920.3708      0.9969611
     43000  -659.73655      107.70529     -767.44184      284.51096     -755.05801      1920.3708      0.9969611
     44000  -669.69234      99.653955     -769.3463       263.24281     -503.10378      1920.3708      0.9969611
     45000  -640.05234      128.5711      -768.62344      339.62945      1561.2037      1920.3708      0.9969611
     46000  -669.38273      116.99998     -786.38271      309.06353     -1626.0996      1920.3708      0.9969611
     47000  -652.80487      111.23176     -764.03663      293.82638      94.148725      1920.3708      0.9969611
     48000  -632.759        119.83771     -752.59671      316.5596      -1583.4895      1920.3708      0.9969611
     49000  -652.77633      113.33142     -766.10775      299.37279      3436.4436      1920.3708      0.9969611
     50000  -638.21614      122.92385     -761.13999      324.71184     -1107.642       1920.3708      0.9969611
     51000  -642.77813      123.6497      -766.42783      326.62923     -30.214116      1920.3708      0.9969611
     52000  -647.99546      120.20682     -768.20228      317.53463     -2989.9531      1920.3708      0.9969611
     53000  -655.29706      110.06901     -765.36607      290.75489     -3401.1008      1920.3708      0.9969611
     54000  -645.65321      129.53257     -775.18577      342.16923     -2339.7947      1920.3708      0.9969611
     55000  -663.23614      112.52719     -775.76333      297.24835      341.56911      1920.3708      0.9969611
     56000  -646.29141      113.18621     -759.47761      298.98919     -1694.8774      1920.3708      0.9969611
     57000  -643.55149      109.41251     -752.964        289.02071      1608.4966      1920.3708      0.9969611
     58000  -638.38068      104.75286     -743.13355      276.71192      1012.2006      1920.3708      0.9969611
     59000  -653.61254      108.32466     -761.93721      286.14708     -393.65901      1920.3708      0.9969611
     60000  -644.79232      125.27437     -770.06669      330.9209      -1539.2737      1920.3708      0.9969611
     61000  -648.07167      108.15888     -756.23056      285.70917     -470.11014      1920.3708      0.9969611
     62000  -635.88802      114.67187     -750.55988      302.91366     -1044.0445      1920.3708      0.9969611
     63000  -653.39151      106.78634     -760.17785      282.08351      144.88771      1920.3708      0.9969611
     64000  -643.71693      99.462501     -743.17943      262.73707     -814.69502      1920.3708      0.9969611
     65000  -629.70975      120.56747     -750.27722      318.48731      387.77407      1920.3708      0.9969611
     66000  -619.07323      123.14535     -742.21859      325.29696      1262.0016      1920.3708      0.9969611
     67000  -652.36709      118.93441     -771.3015       314.17347     -2637.478       1920.3708      0.9969611
     68000  -647.49962      114.05404     -761.55366      301.28162     -1333.7453      1920.3708      0.9969611
     69000  -691.15524      101.52282     -792.67805      268.17953     -1198.2271      1920.3708      0.9969611
     70000  -658.74375      126.63802     -785.38177      334.52308     -52.670688      1920.3708      0.9969611
     71000  -643.79262      104.7402      -748.53282      276.67847     -2180.6353      1920.3708      0.9969611
     72000  -658.57417      105.89129     -764.46546      279.71917     -145.06151      1920.3708      0.9969611
     73000  -653.21826      113.08447     -766.30273      298.72045      473.44306      1920.3708      0.9969611
     74000  -641.52344      114.00968     -755.53312      301.16444      1929.6415      1920.3708      0.9969611
     75000  -643.83149      108.44086     -752.27235      286.45402      499.01204      1920.3708      0.9969611
     76000  -656.73827      104.10805     -760.84632      275.00862      709.04527      1920.3708      0.9969611
     77000  -641.95719      115.88881     -757.846        306.12829      279.74572      1920.3708      0.9969611
     78000  -644.41615      119.82593     -764.24208      316.52847     -1744.5477      1920.3708      0.9969611
     79000  -654.89841      108.83232     -763.73072      287.48809     -1678.6102      1920.3708      0.9969611
     80000  -672.90515      104.46132     -777.36647      275.9418       1387.833       1920.3708      0.9969611
     81000  -645.3355       116.22947     -761.56497      307.02817     -1869.1652      1920.3708      0.9969611
     82000  -623.85507      127.09889     -750.95396      335.7405       2376.0945      1920.3708      0.9969611
     83000  -642.899        116.08439     -758.98338      306.64493      609.48231      1920.3708      0.9969611
     84000  -667.35527      105.8547      -773.20996      279.62249      1889.3053      1920.3708      0.9969611
     85000  -638.56832      108.60386     -747.17217      286.88459     -444.33642      1920.3708      0.9969611
     86000  -626.18619      121.4364      -747.62259      320.78265     -1165.0329      1920.3708      0.9969611
     87000  -643.85057      95.023098     -738.87367      251.01008     -1439.4005      1920.3708      0.9969611
     88000  -629.81196      105.74754     -735.5595       279.33943     -503.94325      1920.3708      0.9969611
     89000  -630.43675      111.69411     -742.13086      295.04771      1233.9423      1920.3708      0.9969611
     90000  -658.27761      106.44627     -764.72388      281.18517     -112.48468      1920.3708      0.9969611
     91000  -658.97433      117.13452     -776.10885      309.41893     -2276.2913      1920.3708      0.9969611
     92000  -633.60947      114.61689     -748.22636      302.76845      3279.4263      1920.3708      0.9969611
     93000  -631.8435       121.51578     -753.35928      320.99233     -940.05111      1920.3708      0.9969611
     94000  -645.58675      112.37484     -757.9616       296.84591     -1704.8929      1920.3708      0.9969611
     95000  -650.79478      109.14722     -759.94201      288.31994      757.95154      1920.3708      0.9969611
     96000  -666.85759      115.07041     -781.928        303.96644     -801.55028      1920.3708      0.9969611
     97000  -653.30683      121.02058     -774.32741      319.68422      1824.3153      1920.3708      0.9969611
     98000  -659.80252      114.92832     -774.73084      303.5911      -1145.1131      1920.3708      0.9969611
     99000  -667.4537       101.76576     -769.21946      268.82129     -2107.6821      1920.3708      0.9969611
    100000  -682.95662      102.44494     -785.40156      270.61538      1519.5582      1920.3708      0.9969611
    101000  -646.94656      116.02915     -762.97571      306.49901     -608.20759      1920.3708      0.9969611
    102000  -647.76272      107.92148     -755.6842       285.08204     -2261.1997      1920.3708      0.9969611
    103000  -644.9622       109.84113     -754.80334      290.15294     -1128.2767      1920.3708      0.9969611
    104000  -661.21703      112.04607     -773.2631       295.97743     -2166.7227      1920.3708      0.9969611
    105000  -641.61847      113.15309     -754.77156      298.90171      4162.5666      1920.3708      0.9969611
    106000  -615.07881      126.13905     -741.21786      333.20503     -2562.7124      1920.3708      0.9969611
    107000  -645.29726      127.18673     -772.48399      335.97253      1215.0544      1920.3708      0.9969611
    108000  -650.33037      99.866423     -750.19679      263.80406     -3608.3078      1920.3708      0.9969611
    109000  -658.27536      107.82753     -766.10288      284.83387     -543.49229      1920.3708      0.9969611
    110000  -638.18984      134.81193     -773.00177      356.11503     -856.77108      1920.3708      0.9969611
    111000  -666.52407      113.8407      -780.36477      300.71807     -264.11325      1920.3708      0.9969611
    112000  -646.61351      108.75223     -755.36574      287.27652      1337.3185      1920.3708      0.9969611
    113000  -668.23472      92.514513     -760.74923      244.38348      403.01463      1920.3708      0.9969611
    114000  -637.03781      113.11136     -750.14916      298.79147     -1194.6085      1920.3708      0.9969611
    115000  -659.37144      109.27562     -768.64706      288.6591      -1082.0957      1920.3708      0.9969611
    116000  -649.27645      111.25889     -760.53534      293.89804      360.16734      1920.3708      0.9969611
    117000  -634.86689      119.52808     -754.39497      315.74168      1911.7389      1920.3708      0.9969611
    118000  -654.27492      102.15726     -756.43218      269.85545     -260.45436      1920.3708      0.9969611
    119000  -622.28686      125.53912     -747.82598      331.62027     -2793.3137      1920.3708      0.9969611
    120000  -648.28693      119.5594      -767.84633      315.82441      1333.0132      1920.3708      0.9969611
    121000  -638.68697      127.02321     -765.71019      335.5406      -269.12569      1920.3708      0.9969611
    122000  -643.78489      125.26355     -769.04844      330.89232     -1492.4389      1920.3708      0.9969611
    123000  -651.45183      113.28399     -764.73581      299.24748     -607.29669      1920.3708      0.9969611
    124000  -671.36798      99.505032     -770.87301      262.84942     -2561.8115      1920.3708      0.9969611
    125000  -631.49567      124.062       -755.55767      327.71834      1549.1825      1920.3708      0.9969611
    126000  -667.37786      109.53959     -776.91745      289.35639     -2262.6353      1920.3708      0.9969611
    127000  -641.1952       122.07699     -763.27219      322.47479      1376.9573      1920.3708      0.9969611
    128000  -649.68294      118.9719      -768.65483      314.27249      690.33719      1920.3708      0.9969611
    129000  -651.46093      109.79747     -761.25841      290.03761     -529.77925      1920.3708      0.9969611
    130000  -622.09728      112.58804     -734.68532      297.40909     -721.73887      1920.3708      0.9969611
    131000  -621.50675      115.30005     -736.8068       304.57304      125.61486      1920.3708      0.9969611
    132000  -646.09606      112.18042     -758.27648      296.33234      2078.7866      1920.3708      0.9969611
    133000  -647.69733      111.94231     -759.63964      295.70335     -854.917        1920.3708      0.9969611
    134000  -649.25635      121.39488     -770.65123      320.67297     -423.10804      1920.3708      0.9969611
    135000  -644.359        121.28172     -765.64071      320.37404      1109.7749      1920.3708      0.9969611
    136000  -644.94835      108.34337     -753.29171      286.19649      1300.2278      1920.3708      0.9969611
    137000  -651.88404      114.76852     -766.65256      303.16897      1578.4318      1920.3708      0.9969611
    138000  -658.80696      110.12976     -768.93672      290.91537      903.87212      1920.3708      0.9969611
    139000  -643.47393      123.91008     -767.38401      327.31704      968.5917       1920.3708      0.9969611
    140000  -663.46013      100.73119     -764.19132      266.08841     -2063.8492      1920.3708      0.9969611
    141000  -654.85231      109.11772     -763.97003      288.24199     -835.46746      1920.3708      0.9969611
    142000  -661.37027      118.21668     -779.58695      312.27754     -4023.3774      1920.3708      0.9969611
    143000  -657.59219      116.12373     -773.71593      306.74886     -440.06432      1920.3708      0.9969611
    144000  -658.14872      115.24248     -773.3912       304.42098     -1227.9062      1920.3708      0.9969611
    145000  -671.81699      114.72861     -786.5456       303.06355     -751.22227      1920.3708      0.9969611
    146000  -664.86478      107.5519      -772.41668      284.10578      803.76088      1920.3708      0.9969611
    147000  -644.11331      116.87827     -760.99157      308.74201     -2266.6651      1920.3708      0.9969611
    148000  -693.0388       100.96026     -793.99906      266.6935      -907.56772      1920.3708      0.9969611
    149000  -657.41016      105.2519      -762.66206      278.03017     -886.86268      1920.3708      0.9969611
    150000  -657.84107      117.17705     -775.01812      309.53127     -1274.6807      1920.3708      0.9969611
    151000  -653.86706      110.12358     -763.99064      290.89904      2920.2654      1920.3708      0.9969611
    152000  -663.74268      108.90337     -772.64605      287.67578     -2682.672       1920.3708      0.9969611
    153000  -651.45539      104.98921     -756.4446       277.33624     -2057.4347      1920.3708      0.9969611
    154000  -674.63302      99.369303     -774.00232      262.49088     -2200.1476      1920.3708      0.9969611
    155000  -647.61643      107.25257     -754.869        283.31507     -2936.1938      1920.3708      0.9969611
    156000  -667.6316       91.945027     -759.57662      242.87914      1249.7879      1920.3708      0.9969611
    157000  -662.6027       127.24031     -789.843        336.11407      763.93891      1920.3708      0.9969611
    158000  -629.36214      116.08371     -745.44585      306.64314     -2162.7697      1920.3708      0.9969611
    159000  -645.82931      106.69005     -752.51936      281.82914      2911.2571      1920.3708      0.9969611
    160000  -639.49126      121.8235      -761.31476      321.8052      -2929.2596      1920.3708      0.9969611
    161000  -660.79953      105.60719     -766.40672      278.96869     -2280.3231      1920.3708      0.9969611
    162000  -631.4371       113.03834     -744.47544      298.59859      1789.1312      1920.3708      0.9969611
    163000  -659.71415      118.62903     -778.34317      313.36678      2604.4585      1920.3708      0.9969611
    164000  -665.49488      103.10122     -768.5961       272.349       -104.73131      1920.3708      0.9969611
    165000  -643.15762      131.39869     -774.55631      347.09871      2895.8917      1920.3708      0.9969611
    166000  -626.9733       108.59572     -735.56902      286.86309      598.7604       1920.3708      0.9969611
    167000  -652.68274      109.43989     -762.12262      289.09302     -2418.762       1920.3708      0.9969611
    168000  -675.05107      90.922508     -765.97358      240.17809     -889.19007      1920.3708      0.9969611
    169000  -641.68981      120.4106      -762.10042      318.07293     -358.06968      1920.3708      0.9969611
    170000  -670.2603       99.357672     -769.61798      262.46016      250.51979      1920.3708      0.9969611
    171000  -658.96493      132.26553     -791.23045      349.38853     -2899.2171      1920.3708      0.9969611
    172000  -660.29887      115.18706     -775.48593      304.27458     -1807.0337      1920.3708      0.9969611
    173000  -654.43986      108.53129     -762.97116      286.69291     -1415.8141      1920.3708      0.9969611
    174000  -645.32019      108.41856     -753.73876      286.39513      624.68014      1920.3708      0.9969611
    175000  -660.47984      112.00651     -772.48635      295.87294      183.54628      1920.3708      0.9969611
    176000  -639.24157      114.86716     -754.10873      303.42954     -722.40701      1920.3708      0.9969611
    177000  -674.04232      113.28416     -787.32648      299.24794      1139.49        1920.3708      0.9969611
    178000  -650.89557      115.50349     -766.39906      305.11044     -815.8343       1920.3708      0.9969611
    179000  -651.95638      106.36315     -758.31953      280.96561     -1550.4597      1920.3708      0.9969611
    180000  -631.29796      131.0879      -762.38587      346.27776      496.28656      1920.3708      0.9969611
    181000  -662.96506      104.32581     -767.29087      275.58383     -939.01477      1920.3708      0.9969611
    182000  -649.95795      118.14276     -768.10071      312.08226      272.74655      1920.3708      0.9969611
    183000  -647.54569      117.93386     -765.47955      311.53044      1956.9274      1920.3708      0.9969611
    184000  -655.6225       110.64139     -766.26389      292.26689     -996.56606      1920.3708      0.9969611
    185000  -643.79647      124.21278     -768.00925      328.11664     -3448.797       1920.3708      0.9969611
    186000  -639.95748      115.5706      -755.52808      305.28773     -1868.6337      1920.3708      0.9969611
    187000  -639.77756      106.79618     -746.57374      282.1095      -2235.5183      1920.3708      0.9969611
    188000  -649.42275      105.21564     -754.63839      277.93439     -4069.1236      1920.3708      0.9969611
    189000  -628.42681      120.74079     -749.16761      318.94515      104.8533       1920.3708      0.9969611
    190000  -657.45502      129.71148     -787.1665       342.64185      2653.0734      1920.3708      0.9969611
    191000  -639.32972      116.10101     -755.43074      306.68885      1368.457       1920.3708      0.9969611
    192000  -632.9654       124.51212     -757.47752      328.90737     -2152.641       1920.3708      0.9969611
    193000  -652.23011      106.33717     -758.56728      280.89699     -314.80273      1920.3708      0.9969611
    194000  -648.02217      116.95332     -764.97549      308.94027     -989.82831      1920.3708      0.9969611
    195000  -658.23935      102.85197     -761.09132      271.69059     -2143.6809      1920.3708      0.9969611
    196000  -649.38495      118.41734     -767.80229      312.80758      2720.5955      1920.3708      0.9969611
    197000  -641.83016      118.33433     -760.16449      312.58832     -1430.3168      1920.3708      0.9969611
    198000  -643.16971      107.11099     -750.2807       282.94108     -899.1376       1920.3708      0.9969611
    199000  -647.71511      109.39136     -757.10648      288.96485      689.49869      1920.3708      0.9969611
    200000  -623.95845      129.10783     -753.06629      341.04726     -2672.9427      1920.3708      0.9969611
    201000  -648.66462      101.86024     -750.52486      269.07087     -1301.7972      1920.3708      0.9969611
    202000  -624.40733      117.91744     -742.32477      311.48707     -1475.029       1920.3708      0.9969611
    203000  -650.66859      109.34557     -760.01416      288.84388      2110.0729      1920.3708      0.9969611
    204000  -661.21423      108.57133     -769.78556      286.79868      849.28716      1920.3708      0.9969611
    205000  -639.73009      112.31863     -752.04872      296.69742      2267.0688      1920.3708      0.9969611
    206000  -670.71119      103.63544     -774.34664      273.76019      1448.1602      1920.3708      0.9969611
    207000  -656.13642      99.714407     -755.85082      263.4025      -2506.6209      1920.3708      0.9969611
    208000  -638.49505      123.24575     -761.7408       325.56217      443.96213      1920.3708      0.9969611
    209000  -658.64245      110.79334     -769.43579      292.66826     -873.86062      1920.3708      0.9969611
    210000  -662.34974      109.54958     -771.89932      289.38278      1924.3311      1920.3708      0.9969611
    211000  -653.24583      108.92593     -762.17175      287.73536      1289.7611      1920.3708      0.9969611
    212000  -651.53403      104.0758      -755.60982      274.92342     -3063.7776      1920.3708      0.9969611
    213000  -662.25298      106.72427     -768.97725      281.91953     -1425.0525      1920.3708      0.9969611
    214000  -658.1202       110.42753     -768.54773      291.70195      13.915338      1920.3708      0.9969611
    215000  -671.36975      100.53536     -771.90511      265.5711      -1006.3856      1920.3708      0.9969611
    216000  -658.53534      107.55174     -766.08707      284.10534     -2562.2083      1920.3708      0.9969611
    217000  -654.66701      102.57415     -757.24116      270.95671     -366.17529      1920.3708      0.9969611
    218000  -648.69133      115.26772     -763.95905      304.48766     -192.52205      1920.3708      0.9969611
    219000  -658.87243      109.98977     -768.8622       290.54557      1819.7162      1920.3708      0.9969611
    220000  -650.03892      120.41984     -770.45876      318.09733      4655.5033      1920.3708      0.9969611
    221000  -640.28437      115.40277     -755.68714      304.84439     -1673.5531      1920.3708      0.9969611
    222000  -645.83055      112.32447     -758.15502      296.71284     -720.38015      1920.3708      0.9969611
    223000  -657.57444      115.50197     -773.0764       305.10643     -11.25631       1920.3708      0.9969611
    224000  -645.20204      115.03731     -760.23935      303.87901     -201.48389      1920.3708      0.9969611
    225000  -660.52455      113.98646     -774.51101      301.10312     -809.12476      1920.3708      0.9969611
    226000  -663.39936      109.45544     -772.85479      289.1341      -1773.7081      1920.3708      0.9969611
    227000  -680.27527      114.89086     -795.16613      303.49215     -356.72166      1920.3708      0.9969611
    228000  -648.77572      107.97374     -756.74946      285.2201      -1452.164       1920.3708      0.9969611
    229000  -657.59539      109.9809      -767.57629      290.52214      83.476554      1920.3708      0.9969611
    230000  -653.04133      124.54034     -777.58166      328.98191      1316.4335      1920.3708      0.9969611
    231000  -652.39985      117.02467     -769.42452      309.12876     -1064.1203      1920.3708      0.9969611
    232000  -653.4529       123.68712     -777.14002      326.72809      2476.7357      1920.3708      0.9969611
    233000  -660.89102      128.44094     -789.33196      339.28562     -486.85467      1920.3708      0.9969611
    234000  -659.01074      120.53556     -779.5463       318.40302     -2514.0841      1920.3708      0.9969611
    235000  -641.4665       128.4114      -769.8779       339.20758      1876.6038      1920.3708      0.9969611
    236000  -657.22146      117.7455      -774.96696      311.03288      146.27138      1920.3708      0.9969611
    237000  -666.08966      95.578979     -761.66864      252.47848     -441.41764      1920.3708      0.9969611
    238000  -637.99011      119.64622     -757.63632      316.05375      3713.5736      1920.3708      0.9969611
    239000  -683.4348       102.8389      -786.27371      271.65607     -1395.457       1920.3708      0.9969611
    240000  -647.14311      123.05925     -770.20235      325.0695      -2929.1568      1920.3708      0.9969611
    241000  -679.14989      114.39711     -793.547        302.18787     -793.04999      1920.3708      0.9969611
    242000  -673.1543       96.40685      -769.56115      254.66536     -893.20872      1920.3708      0.9969611
    243000  -667.09156      106.24667     -773.33823      280.65791     -3311.6362      1920.3708      0.9969611
    244000  -642.24849      119.42154     -761.67003      315.46026     -1683.5407      1920.3708      0.9969611
    245000  -639.11178      124.28368     -763.39546      328.30393     -3074.7561      1920.3708      0.9969611
    246000  -639.56421      114.84492     -754.40913      303.37079     -1330.6809      1920.3708      0.9969611
    247000  -644.17831      114.60456     -758.78287      302.73586      335.86103      1920.3708      0.9969611
    248000  -630.2263       117.28114     -747.50743      309.80622     -463.37022      1920.3708      0.9969611
    249000  -638.14935      117.69618     -755.84553      310.90259     -987.25693      1920.3708      0.9969611
    250000  -665.31603      102.05358     -767.36961      269.58158     -2780.3964      1920.3708      0.9969611
    251000  -636.88311      115.68101     -752.56411      305.57938      163.47497      1920.3708      0.9969611
    252000  -681.89403      95.978258     -777.87229      253.5332      -2038.3674      1920.3708      0.9969611
    253000  -639.34518      102.25083     -741.59601      270.10264     -920.20944      1920.3708      0.9969611
    254000  -655.43162      99.100326     -754.53195      261.78036      2920.1215      1920.3708      0.9969611
    255000  -664.84669      104.6586      -769.50529      276.46293     -695.71495      1920.3708      0.9969611
    256000  -624.93314      129.77025     -754.70339      342.79708      1664.7313      1920.3708      0.9969611
    257000  -676.5948       109.08705     -785.68185      288.16097     -1430.0677      1920.3708      0.9969611
    258000  -654.40533      113.00842     -767.41376      298.51956     -1146.6968      1920.3708      0.9969611
    259000  -655.51433      119.15825     -774.67257      314.76474      1777.3126      1920.3708      0.9969611
    260000  -669.54827      102.24273     -771.791        270.08122      707.22541      1920.3708      0.9969611
    261000  -649.23259      122.6878      -771.92039      324.08829      2112.1834      1920.3708      0.9969611
    262000  -667.18792      108.13317     -775.32109      285.64125     -424.00935      1920.3708      0.9969611
    263000  -638.95336      128.67446     -767.62781      339.90247      1010.7872      1920.3708      0.9969611
    264000  -626.21953      118.17572     -744.39525      312.16932     -337.9519       1920.3708      0.9969611
    265000  -656.9456       106.38296     -763.32856      281.01793      349.7336       1920.3708      0.9969611
    266000  -634.99605      109.63271     -744.62877      289.60239     -487.26306      1920.3708      0.9969611
    267000  -653.18791      110.84427     -764.03219      292.80281      318.70606      1920.3708      0.9969611
    268000  -650.7415       118.31947     -769.06098      312.54907     -979.52246      1920.3708      0.9969611
    269000  -638.75807      125.85098     -764.60905      332.44406     -1402.1646      1920.3708      0.9969611
    270000  -665.10934      104.75478     -769.86412      276.71699      816.1206       1920.3708      0.9969611
    271000  -657.05366      107.88992     -764.94358      284.99867     -596.88864      1920.3708      0.9969611
    272000  -652.48556      113.64989     -766.13545      300.21405     -840.31106      1920.3708      0.9969611
    273000  -641.37234      110.38611     -751.75845      291.59255      1507.771       1920.3708      0.9969611
    274000  -635.93442      127.36142     -763.29584      336.43399     -1262.9193      1920.3708      0.9969611
    275000  -646.31007      112.13352     -758.44358      296.20844     -71.411662      1920.3708      0.9969611
    276000  -665.116        100.01762     -765.13362      264.20345      2558.8562      1920.3708      0.9969611
    277000  -664.45539      112.35803     -776.81342      296.80151     -1049.2732      1920.3708      0.9969611
    278000  -645.39975      118.67359     -764.07334      313.48448      850.7896       1920.3708      0.9969611
    279000  -643.13587      111.36748     -754.50335      294.1849      -622.51557      1920.3708      0.9969611
    280000  -657.8289       121.90013     -779.72903      322.00763     -2796.1618      1920.3708      0.9969611
    281000  -650.52378      112.99687     -763.52065      298.48904     -132.54656      1920.3708      0.9969611
    282000  -652.04443      103.69623     -755.74066      273.92076     -3087.3333      1920.3708      0.9969611
    283000  -656.65328      109.36493     -766.01822      288.89503     -1277.4587      1920.3708      0.9969611
    284000  -675.22524      108.61293     -783.83817      286.90857     -905.86217      1920.3708      0.9969611
    285000  -659.62528      107.78583     -767.41111      284.72372     -1678.6994      1920.3708      0.9969611
    286000  -670.5354       106.78446     -777.31987      282.07854     -1881.0329      1920.3708      0.9969611
    287000  -655.11726      119.92746     -775.04472      316.79667     -553.85115      1920.3708      0.9969611
    288000  -640.73095      114.019       -754.74995      301.18907     -1574.9372      1920.3708      0.9969611
    289000  -679.30232      96.678257     -775.98058      255.3823       2195.5499      1920.3708      0.9969611
    290000  -668.73507      113.76066     -782.49573      300.50666     -1766.3499      1920.3708      0.9969611
    291000  -672.20621      95.305349     -767.51156      251.75567     -1197.9608      1920.3708      0.9969611
    292000  -657.28851      108.67371     -765.96221      287.06911      488.26488      1920.3708      0.9969611
    293000  -666.62823      104.24084     -770.86907      275.35939     -87.996258      1920.3708      0.9969611
    294000  -661.4401       111.56865     -773.00875      294.71629      2251.8436      1920.3708      0.9969611
    295000  -654.96737      111.13566     -766.10304      293.57253     -1319.4219      1920.3708      0.9969611
    296000  -637.35011      134.80384     -772.15395      356.09366     -1117.3212      1920.3708      0.9969611
    297000  -652.79162      105.17987     -757.9715       277.83991     -606.82621      1920.3708      0.9969611
    298000  -644.12981      121.25889     -765.38869      320.31373     -965.48061      1920.3708      0.9969611
    299000  -658.04781      106.85689     -764.9047       282.26985     -1125.2467      1920.3708      0.9969611
    300000  -643.08785      121.17953     -764.26738      320.1041      -1635.3729      1920.3708      0.9969611
    301000  -653.06641      109.16552     -762.23193      288.36827      1082.3006      1920.3708      0.9969611
    302000  -674.34555      108.33493     -782.68048      286.1742      -322.34822      1920.3708      0.9969611
    303000  -666.9332       117.45379     -784.38699      310.26229      1312.9757      1920.3708      0.9969611
    304000  -662.43526      109.13308     -771.56834      288.28256      76.543137      1920.3708      0.9969611
    305000  -668.73932      111.51721     -780.25653      294.58041      229.33962      1920.3708      0.9969611
    306000  -659.49302      113.89881     -773.39183      300.87157     -1677.4791      1920.3708      0.9969611
    307000  -676.55137      114.09883     -790.6502       301.39994     -831.85312      1920.3708      0.9969611
    308000  -685.70532      100.71974     -786.42506      266.05817     -3670.8868      1920.3708      0.9969611
    309000  -664.11988      109.85101     -773.97088      290.17903     -2497.2092      1920.3708      0.9969611
    310000  -655.65113      125.51418     -781.1653       331.55437      626.63314      1920.3708      0.9969611
    311000  -631.00799      112.90079     -743.90877      298.23524     -2366.4605      1920.3708      0.9969611
    312000  -645.70338      117.96564     -763.66902      311.61439     -236.98462      1920.3708      0.9969611
    313000  -661.22162      116.49051     -777.71213      307.71774      2063.8043      1920.3708      0.9969611
    314000  -662.8147       109.63291     -772.44761      289.60291      253.91757      1920.3708      0.9969611
    315000  -683.39513      106.27509     -789.67022      280.73298      269.56567      1920.3708      0.9969611
    316000  -683.39912      106.96927     -790.36839      282.56672     -1640.2935      1920.3708      0.9969611
    317000  -669.67447      113.06567     -782.74013      298.67077      868.33615      1920.3708      0.9969611
    318000  -666.36127      102.03276     -768.39403      269.52658     -2176.2743      1920.3708      0.9969611
    319000  -658.23615      109.55317     -767.78932      289.39228      1524.3521      1920.3708      0.9969611
    320000  -666.49802      103.0811      -769.57912      272.29586     -1561.2305      1920.3708      0.9969611
    321000  -657.60723      102.43602     -760.04324      270.59182      737.92322      1920.3708      0.9969611
    322000  -670.63158      111.15906     -781.79064      293.63434     -734.74106      1920.3708      0.9969611
    323000  -645.40117      111.91477     -757.31594      295.63061      562.44817      1920.3708      0.9969611
    324000  -661.20038      109.36652     -770.5669       288.89923     -2520.2389      1920.3708      0.9969611
    325000  -636.97598      117.39889     -754.37487      310.11729      190.36582      1920.3708      0.9969611
    326000  -672.57496      112.75236     -785.32732      297.84314     -466.21662      1920.3708      0.9969611
    327000  -646.99126      113.37826     -760.36952      299.4965       383.63581      1920.3708      0.9969611
    328000  -623.79862      132.70785     -756.50647      350.55694      524.99207      1920.3708      0.9969611
    329000  -666.7779       107.43529     -774.2132       283.79775     -612.06565      1920.3708      0.9969611
    330000  -649.25496      128.29272     -777.54768      338.89409      281.34909      1920.3708      0.9969611
    331000  -655.10513      112.18157     -767.2867       296.33538     -1742.7841      1920.3708      0.9969611
    332000  -664.43699      118.97035     -783.40734      314.2684       1174.0425      1920.3708      0.9969611
    333000  -666.76768      109.58459     -776.35227      289.47528     -265.71541      1920.3708      0.9969611
    334000  -670.6639       115.56985     -786.23375      305.28574     -1.4183713      1920.3708      0.9969611
    335000  -659.95482      120.39102     -780.34585      318.02121     -458.08051      1920.3708      0.9969611
    336000  -646.85397      129.2703      -776.12427      341.47643     -2150.8892      1920.3708      0.9969611
    337000  -620.61241      121.94836     -742.56077      322.13501      1115.7618      1920.3708      0.9969611
    338000  -661.52955      114.5077      -776.03725      302.48001      1696.8669      1920.3708      0.9969611
    339000  -641.4762       117.54118     -759.01738      310.49315      1812.0129      1920.3708      0.9969611
    340000  -646.04666      109.92983     -755.9765       290.38725     -2534.9726      1920.3708      0.9969611
    341000  -634.68767      114.68263     -749.3703       302.94208     -2241.1739      1920.3708      0.9969611
    342000  -650.03047      122.48791     -772.51839      323.56029      250.4536       1920.3708      0.9969611
    343000  -633.13591      110.85165     -743.98756      292.8223       934.77409      1920.3708      0.9969611
    344000  -641.35848      115.87549     -757.23397      306.09312     -174.76897      1920.3708      0.9969611
    345000  -655.3903       112.11394     -767.50424      296.15673      403.95482      1920.3708      0.9969611
    346000  -616.46645      112.67021     -729.13666      297.62616      2229.4624      1920.3708      0.9969611
    347000  -646.54657      118.21219     -764.75876      312.26567     -156.28797      1920.3708      0.9969611
    348000  -684.87221      94.349346     -779.22156      249.23032     -1885.1371      1920.3708      0.9969611
    349000  -654.54528      107.84628     -762.39156      284.8834      -1164.0691      1920.3708      0.9969611
    350000  -634.18602      119.30655     -753.49257      315.1565       2300.0275      1920.3708      0.9969611
    351000  -634.44425      111.91586     -746.36011      295.63349     -12.556346      1920.3708      0.9969611
    352000  -650.03444      114.44837     -764.48281      302.32329      1104.4275      1920.3708      0.9969611
    353000  -654.87405      111.50087     -766.37492      294.53725      137.55857      1920.3708      0.9969611
    354000  -666.53272      109.44298     -775.9757       289.10118      303.66331      1920.3708      0.9969611
    355000  -641.10879      119.74065     -760.84944      316.3032       643.89423      1920.3708      0.9969611
    356000  -659.264        114.932       -774.196        303.60081     -55.383441      1920.3708      0.9969611
    357000  -638.07434      129.45729     -767.53163      341.97037     -1673.4088      1920.3708      0.9969611
    358000  -671.66943      105.89357     -777.563        279.72519     -762.26487      1920.3708      0.9969611
    359000  -654.45436      119.95374     -774.40811      316.8661      -3003.5038      1920.3708      0.9969611
    360000  -653.99375      110.8082      -764.80195      292.70751      1306.9216      1920.3708      0.9969611
    361000  -628.11422      127.81567     -755.92989      337.63393     -659.90108      1920.3708      0.9969611
    362000  -671.12806      107.51519     -778.64325      284.00881     -626.82716      1920.3708      0.9969611
    363000  -641.66053      118.25048     -759.91101      312.36681      1047.1451      1920.3708      0.9969611
    364000  -652.22642      106.18831     -758.41473      280.50375     -1129.0304      1920.3708      0.9969611
    365000  -649.27369      108.80331     -758.077        287.41147      48.953038      1920.3708      0.9969611
    366000  -678.05407      114.63585     -792.68992      302.81852     -933.91676      1920.3708      0.9969611
    367000  -696.00441      101.09568     -797.10009      267.05123     -1202.1815      1920.3708      0.9969611
    368000  -660.77502      109.03758     -769.8126       288.0303      -854.34179      1920.3708      0.9969611
    369000  -667.2371       99.373757     -766.61086      262.50265     -194.53922      1920.3708      0.9969611
    370000  -660.02067      107.96515     -767.98582      285.19742     -1094.872       1920.3708      0.9969611
    371000  -663.56321      103.33397     -766.89717      272.96382      1392.4203      1920.3708      0.9969611
    372000  -621.92739      139.46397     -761.39135      368.40371      59.085742      1920.3708      0.9969611
    373000  -660.78568      118.69919     -779.48487      313.55211     -394.00459      1920.3708      0.9969611
    374000  -677.64262      110.48185     -788.12447      291.84543     -1485.159       1920.3708      0.9969611
    375000  -665.72996      107.56002     -773.28998      284.12723     -3296.3722      1920.3708      0.9969611
    376000  -673.2163       121.63169     -794.84799      321.29851      1609.7335      1920.3708      0.9969611
    377000  -621.36037      121.83731     -743.19768      321.84167     -116.66683      1920.3708      0.9969611
    378000  -650.75521      116.20522     -766.96042      306.96411     -932.47799      1920.3708      0.9969611
    379000  -646.72997      113.08263     -759.8126       298.71557      2341.2762      1920.3708      0.9969611
    380000  -667.4427       114.0182      -781.4609       301.18696     -892.21091      1920.3708      0.9969611
    381000  -658.31287      120.93686     -779.24973      319.46307     -199.43598      1920.3708      0.9969611
    382000  -647.64524      126.37326     -774.01851      333.82371      0.203716       1920.3708      0.9969611
    383000  -676.27304      108.95457     -785.22761      287.81104     -1124.2124      1920.3708      0.9969611
    384000  -638.43951      109.77484     -748.21434      289.97782     -955.38016      1920.3708      0.9969611
    385000  -652.85162      118.09535     -770.94697      311.95704     -1096.3074      1920.3708      0.9969611
    386000  -636.31217      107.69465     -744.00682      284.48285      1667.2303      1920.3708      0.9969611
    387000  -651.87246      110.25616     -762.12862      291.24927     -1500.3865      1920.3708      0.9969611
    388000  -636.68623      107.98686     -744.67309      285.25476     -791.49398      1920.3708      0.9969611
    389000  -651.46827      107.56401     -759.03228      284.13777      1666.4601      1920.3708      0.9969611
    390000  -631.12504      108.73252     -739.85756      287.22446      813.33225      1920.3708      0.9969611
    391000  -649.41883      100.24997     -749.6688       264.81723     -168.12808      1920.3708      0.9969611
    392000  -665.11101      106.7065      -771.81751      281.87259      1128.2577      1920.3708      0.9969611
    393000  -636.65226      118.81845     -755.47071      313.86713      1014.1884      1920.3708      0.9969611
    394000  -660.98149      101.34958     -762.33107      267.72192     -48.981252      1920.3708      0.9969611
    395000  -663.67511      111.03427     -774.70938      293.30471     -1774.5834      1920.3708      0.9969611
    396000  -652.03563      117.20676     -769.24239      309.60976      1757.8121      1920.3708      0.9969611
    397000  -659.29456      113.14905     -772.44361      298.89104     -423.32938      1920.3708      0.9969611
    398000  -648.93141      114.82832     -763.75973      303.32693      1239.3255      1920.3708      0.9969611
    399000  -646.14989      125.87068     -772.02057      332.49609      2953.2105      1920.3708      0.9969611
    400000  -651.20492      114.8466      -766.05153      303.37524      231.1606       1920.3708      0.9969611
    401000  -618.31834      131.88019     -750.19852      348.37063     -156.73944      1920.3708      0.9969611
    402000  -652.14543      119.56781     -771.71324      315.84665      3042.717       1920.3708      0.9969611
    403000  -646.01873      104.01537     -750.03409      274.76378     -749.39459      1920.3708      0.9969611
    404000  -622.99617      135.5959      -758.59207      358.18594      2192.939       1920.3708      0.9969611
    405000  -665.36128      99.789819     -765.1511       263.6017      -1118.2818      1920.3708      0.9969611
    406000  -637.52291      113.99384     -751.51675      301.12261     -5158.1726      1920.3708      0.9969611
    407000  -650.64546      104.45168     -755.09714      275.91633     -511.04142      1920.3708      0.9969611
    408000  -670.77002      111.25586     -782.02588      293.89005     -1686.7935      1920.3708      0.9969611
    409000  -646.63437      111.1988      -757.83316      293.73931      256.89703      1920.3708      0.9969611
    410000  -663.43351      113.50491     -776.93842      299.83106     -2320.2171      1920.3708      0.9969611
    411000  -683.76767      117.2992      -801.06686      309.85393     -80.210666      1920.3708      0.9969611
    412000  -669.03423      109.90368     -778.9379       290.31816      247.90464      1920.3708      0.9969611
    413000  -686.88253      107.19281     -794.07534      283.15723     -135.88061      1920.3708      0.9969611
    414000  -689.99939      104.90202     -794.90141      277.10592      550.12482      1920.3708      0.9969611
    415000  -647.25952      113.37678     -760.6363       299.49259     -1158.0675      1920.3708      0.9969611
    416000  -651.25631      121.07788     -772.33418      319.83558     -353.87389      1920.3708      0.9969611
    417000  -655.05352      119.99752     -775.05104      316.98175      954.03409      1920.3708      0.9969611
    418000  -656.11444      108.31649     -764.43093      286.12549      3060.8742      1920.3708      0.9969611
    419000  -669.68403      114.68022     -784.36425      302.93572      1391.402       1920.3708      0.9969611
    420000  -645.02158      109.40993     -754.4315       289.01388     -2408.1162      1920.3708      0.9969611
    421000  -631.73986      117.67772     -749.41758      310.85384     -2785.1577      1920.3708      0.9969611
    422000  -651.97808      114.91819     -766.89627      303.56434     -3459.4872      1920.3708      0.9969611
    423000  -660.34804      114.19081     -774.53885      301.64291      1858.0289      1920.3708      0.9969611
    424000  -640.91594      118.12437     -759.04031      312.03369     -3994.6095      1920.3708      0.9969611
    425000  -662.30966      106.79199     -769.10164      282.09841     -3214.6077      1920.3708      0.9969611
    426000  -673.57093      112.98745     -786.55838      298.46417     -2916.3911      1920.3708      0.9969611
    427000  -664.69719      103.80665     -768.50384      274.21244      190.46277      1920.3708      0.9969611
    428000  -665.71259      109.38809     -775.10068      288.9562       1648.2475      1920.3708      0.9969611
    429000  -658.16004      121.94006     -780.1001       322.1131      -2595.856       1920.3708      0.9969611
    430000  -639.09378      128.78409     -767.87787      340.19208      3396.0756      1920.3708      0.9969611
    431000  -670.34213      99.913868     -770.256        263.92939     -1241.8162      1920.3708      0.9969611
    432000  -648.28608      116.00809     -764.29417      306.4434       2945.5042      1920.3708      0.9969611
    433000  -629.58713      113.77739     -743.36453      300.55084      301.74762      1920.3708      0.9969611
    434000  -643.30513      102.24193     -745.54706      270.07912     -3339.8461      1920.3708      0.9969611
    435000  -640.06096      117.24704     -757.308        309.71617      912.05621      1920.3708      0.9969611
    436000  -649.20857      113.17347     -762.38204      298.95555      957.55853      1920.3708      0.9969611
    437000  -666.54575      99.709185     -766.25493      263.3887       1779.8938      1920.3708      0.9969611
    438000  -642.48542      120.82811     -763.31353      319.1758       1207.2971      1920.3708      0.9969611
    439000  -670.5542       104.36641     -774.92061      275.69109     -3458.7226      1920.3708      0.9969611
    440000  -657.29123      118.42913     -775.72036      312.83872     -60.505653      1920.3708      0.9969611
    441000  -645.69996      107.0998      -752.79976      282.91152      653.3317       1920.3708      0.9969611
    442000  -652.50416      112.48389     -764.98805      297.13398     -494.87906      1920.3708      0.9969611
    443000  -662.5387       114.64018     -777.17888      302.82995     -971.04287      1920.3708      0.9969611
    444000  -675.75229      116.32867     -792.08096      307.29022     -1683.1307      1920.3708      0.9969611
    445000  -665.30233      109.68546     -774.9878       289.74173      1754.8115      1920.3708      0.9969611
    446000  -664.23036      108.72        -772.95037      287.1914      -885.61686      1920.3708      0.9969611
    447000  -656.92301      107.0999      -764.02291      282.91178     -1451.6797      1920.3708      0.9969611
    448000  -616.71489      117.14169     -733.85657      309.43787      302.25674      1920.3708      0.9969611
    449000  -628.23023      121.60542     -749.83564      321.22911      596.02657      1920.3708      0.9969611
    450000  -644.17233      101.59676     -745.76909      268.37486     -2409.3256      1920.3708      0.9969611
    451000  -635.63956      105.93227     -741.57183      279.82741      2397.6055      1920.3708      0.9969611
    452000  -641.50629      112.11261     -753.6189       296.15322     -565.43294      1920.3708      0.9969611
    453000  -660.93509      109.27697     -770.21207      288.66268      9.6626546      1920.3708      0.9969611
    454000  -669.55322      111.86701     -781.42023      295.50443      288.67001      1920.3708      0.9969611
    455000  -670.51891      100.6796      -771.1985       265.95211     -55.157554      1920.3708      0.9969611
    456000  -665.9456       110.24897     -776.19457      291.23028     -1300.4755      1920.3708      0.9969611
    457000  -643.35355      114.24431     -757.59786      301.78424      2319.5414      1920.3708      0.9969611
    458000  -637.60174      120.27209     -757.87383      317.70704     -140.09555      1920.3708      0.9969611
    459000  -663.55906      116.5771      -780.13616      307.94645     -1535.9072      1920.3708      0.9969611
    460000  -671.52172      112.74534     -784.26706      297.82462     -1683.77        1920.3708      0.9969611
    461000  -658.86599      103.42985     -762.29584      273.21709     -2191.1555      1920.3708      0.9969611
    462000  -652.26552      107.15232     -759.41784      283.05026      2158.0073      1920.3708      0.9969611
    463000  -657.84988      105.1215      -762.97138      277.68571     -2408.5735      1920.3708      0.9969611
    464000  -626.99075      111.96691     -738.95766      295.76832      1698.1454      1920.3708      0.9969611
    465000  -661.88741      119.93159     -781.819        316.80758     -2223.63        1920.3708      0.9969611
    466000  -648.67645      121.4941      -770.17055      320.93505     -2637.3795      1920.3708      0.9969611
    467000  -673.95189      112.11894     -786.07083      296.16993     -2514.8753      1920.3708      0.9969611
    468000  -651.83752      120.87013     -772.70765      319.28679     -2000.9251      1920.3708      0.9969611
    469000  -667.51384      112.1421      -779.65594      296.23111     -39.364596      1920.3708      0.9969611
    470000  -661.49269      107.67343     -769.16612      284.4268       728.54147      1920.3708      0.9969611
    471000  -639.72452      124.68352     -764.40804      329.36014      777.2682       1920.3708      0.9969611
    472000  -658.98969      115.68324     -774.67292      305.58526     -268.17395      1920.3708      0.9969611
    473000  -616.58055      130.55008     -747.13063      344.85707      1082.7502      1920.3708      0.9969611
    474000  -633.36167      115.60613     -748.9678       305.38159      816.53378      1920.3708      0.9969611
    475000  -645.56234      121.11481     -766.67715      319.93313     -1662.4712      1920.3708      0.9969611
    476000  -631.33729      111.58186     -742.91915      294.7512       1585.0792      1920.3708      0.9969611
    477000  -647.62833      109.33613     -756.96446      288.81893     -2140.7654      1920.3708      0.9969611
    478000  -629.37403      133.42435     -762.79838      352.44964     -1787.695       1920.3708      0.9969611
    479000  -635.63797      115.18356     -750.82154      304.26534     -1022.6358      1920.3708      0.9969611
    480000  -642.36984      116.90126     -759.27111      308.80277      803.16566      1920.3708      0.9969611
    481000  -646.57003      112.00756     -758.57758      295.87571     -1064.0653      1920.3708      0.9969611
    482000  -665.50765      104.2506      -769.75825      275.38516     -1747.1802      1920.3708      0.9969611
    483000  -653.93136      113.31474     -767.2461       299.32872     -331.36131      1920.3708      0.9969611
    484000  -653.59756      109.99242     -763.58998      290.55257      1575.2562      1920.3708      0.9969611
    485000  -657.6147       110.86406     -768.47875      292.85506     -939.14395      1920.3708      0.9969611
    486000  -667.61226      107.31767     -774.92993      283.48704      219.16924      1920.3708      0.9969611
    487000  -659.99493      100.36622     -760.36115      265.1243       3041.6345      1920.3708      0.9969611
    488000  -650.59408      112.25025     -762.84434      296.5168       945.33486      1920.3708      0.9969611
    489000  -666.62461      110.08363     -776.70823      290.79351     -114.13966      1920.3708      0.9969611
    490000  -654.19504      108.54056     -762.7356       286.71739     -1773.3812      1920.3708      0.9969611
    491000  -638.51804      109.46939     -747.98743      289.17095     -2905.7429      1920.3708      0.9969611
    492000  -660.16725      104.91126     -765.07851      277.13033     -1029.4768      1920.3708      0.9969611
    493000  -642.98513      123.40001     -766.38513      325.96965     -1013.3962      1920.3708      0.9969611
    494000  -648.34476      111.50492     -759.84968      294.54794     -674.01714      1920.3708      0.9969611
    495000  -656.35116      110.4965      -766.84766      291.88414     -474.01263      1920.3708      0.9969611
    496000  -656.78125      105.86288     -762.64412      279.6441      -767.89062      1920.3708      0.9969611
    497000  -647.00375      119.7228      -766.72655      316.25604      1903.3993      1920.3708      0.9969611
    498000  -650.45376      123.8785      -774.33225      327.23361     -1460.7956      1920.3708      0.9969611
    499000  -653.26399      114.18353     -767.44752      301.62367      16.009187      1920.3708      0.9969611
    500000  -618.92429      116.7377      -735.66198      308.3707       1588.6813      1920.3708      0.9969611
    501000  -662.46424      111.87289     -774.33713      295.51997      1736.77        1920.3708      0.9969611
    502000  -641.31302      111.79785     -753.11087      295.32175     -437.86535      1920.3708      0.9969611
    503000  -648.62129      112.61437     -761.23565      297.47864     -529.11322      1920.3708      0.9969611
    504000  -626.64604      133.64101     -760.28705      353.02197      543.60871      1920.3708      0.9969611
    505000  -637.67857      121.94915     -759.62772      322.13711     -2875.7242      1920.3708      0.9969611
    506000  -663.18981      98.445362     -761.63517      260.05023     -727.9478       1920.3708      0.9969611
    507000  -644.48224      111.96895     -756.45119      295.77372     -2272.9255      1920.3708      0.9969611
    508000  -638.87572      126.44378     -765.3195       334.00998      2298.8175      1920.3708      0.9969611
    509000  -660.90844      103.10058     -764.00902      272.34731      479.37436      1920.3708      0.9969611
    510000  -629.06709      125.79572     -754.86281      332.29809     -1276.5944      1920.3708      0.9969611
    511000  -629.79557      110.01554     -739.81111      290.61366      208.0209       1920.3708      0.9969611
    512000  -648.77358      103.77281     -752.54639      274.12305      2265.1943      1920.3708      0.9969611
    513000  -682.31176      99.613189     -781.92495      263.13512      453.58738      1920.3708      0.9969611
    514000  -694.54392      94.365983     -788.90991      249.27427     -1597.7654      1920.3708      0.9969611
    515000  -638.12202      129.32171     -767.44373      341.61223      1726.7469      1920.3708      0.9969611
    516000  -661.94485      112.58833     -774.53318      297.40985      833.10666      1920.3708      0.9969611
    517000  -665.59977      113.6014      -779.20117      300.08595     -23.483653      1920.3708      0.9969611
    518000  -687.78436      111.45201     -799.23637      294.40818     -1939.2977      1920.3708      0.9969611
    519000  -651.60229      99.448001     -751.0503       262.69877     -1942.0726      1920.3708      0.9969611
    520000  -630.78038      124.73423     -755.51461      329.49409     -571.18501      1920.3708      0.9969611
    521000  -617.09987      129.44678     -746.54665      341.94261     -224.90323      1920.3708      0.9969611
    522000  -667.23352      109.95698     -777.1905       290.45895      424.67509      1920.3708      0.9969611
    523000  -634.64201      127.89741     -762.53941      337.84984      532.76807      1920.3708      0.9969611
    524000  -663.23867      112.01817     -775.25684      295.90373     -2116.3042      1920.3708      0.9969611
    525000  -646.60259      127.45213     -774.05472      336.67362     -219.3316       1920.3708      0.9969611
    526000  -625.51215      129.4994      -755.01155      342.08162      297.89435      1920.3708      0.9969611
    527000  -662.28634      102.8092      -765.09554      271.5776      -1120.3615      1920.3708      0.9969611
    528000  -655.71514      108.31096     -764.0261       286.11089     -216.88081      1920.3708      0.9969611
    529000  -648.87725      100.44774     -749.32499      265.33964     -2399.6708      1920.3708      0.9969611
    530000  -645.94456      104.26173     -750.20629      275.41457     -2834.7675      1920.3708      0.9969611
    531000  -643.78097      133.12323     -776.9042       351.65421     -1030.66        1920.3708      0.9969611
    532000  -658.32866      124.7071      -783.03577      329.42243     -844.54327      1920.3708      0.9969611
    533000  -657.17417      115.20315     -772.37733      304.31709     -180.03488      1920.3708      0.9969611
    534000  -672.45292      108.13857     -780.59149      285.65551      891.73542      1920.3708      0.9969611
    535000  -647.68469      115.78377     -763.46847      305.85084      559.46165      1920.3708      0.9969611
    536000  -654.73803      129.22152     -783.95955      341.34757      272.03788      1920.3708      0.9969611
    537000  -682.14549      103.45032     -785.59581      273.27117      1118.6057      1920.3708      0.9969611
    538000  -668.52364      110.04413     -778.56777      290.68916      268.72532      1920.3708      0.9969611
    539000  -675.34812      103.08083     -778.42895      272.29514     -40.88898       1920.3708      0.9969611
    540000  -666.65645      121.44396     -788.10041      320.80261      2739.224       1920.3708      0.9969611
    541000  -652.99962      114.93304     -767.93267      303.60358      2090.2938      1920.3708      0.9969611
    542000  -653.36537      116.38157     -769.74694      307.42997     -683.22655      1920.3708      0.9969611
    543000  -651.68391      111.32529     -763.0092       294.07345     -68.624464      1920.3708      0.9969611
    544000  -632.31568      115.85586     -748.17154      306.04125      4092.6624      1920.3708      0.9969611
    545000  -644.75793      109.85764     -754.61558      290.19656      4706.9063      1920.3708      0.9969611
    546000  -637.80702      110.69195     -748.49897      292.40045      2789.1716      1920.3708      0.9969611
    547000  -652.25587      101.0496      -753.30547      266.92949      1085.8245      1920.3708      0.9969611
    548000  -657.13547      113.93426     -771.06973      300.96523     -1150.0754      1920.3708      0.9969611
    549000  -663.64912      100.27106     -763.92018      264.87295     -3244.3951      1920.3708      0.9969611
    550000  -655.8951       111.66419     -767.55929      294.96869     -2142.6137      1920.3708      0.9969611
    551000  -638.68509      108.5964      -747.2815       286.8649       942.27848      1920.3708      0.9969611
    552000  -622.16671      137.18798     -759.35469      362.39152      157.20486      1920.3708      0.9969611
    553000  -651.32137      120.32435     -771.64573      317.8451      -2485.6171      1920.3708      0.9969611
    554000  -654.5618       119.25393     -773.81574      315.0175       2154.5363      1920.3708      0.9969611
    555000  -678.62454      99.201539     -777.82608      262.04772     -1993.6033      1920.3708      0.9969611
    556000  -655.42859      109.72119     -765.14977      289.8361      -322.04684      1920.3708      0.9969611
    557000  -653.90907      100.81748     -754.72655      266.31633     -3506.7832      1920.3708      0.9969611
    558000  -641.50374      115.75968     -757.26342      305.7872      -889.69864      1920.3708      0.9969611
    559000  -647.06322      113.34398     -760.4072       299.40596      3667.8063      1920.3708      0.9969611
    560000  -642.27585      118.92877     -761.20462      314.15855      1163.062       1920.3708      0.9969611
    561000  -653.23185      104.9185      -758.15035      277.14946     -3679.1454      1920.3708      0.9969611
    562000  -650.64397      105.2287      -755.87267      277.96888     -123.07669      1920.3708      0.9969611
    563000  -664.55418      110.87138     -775.42556      292.87443      590.84048      1920.3708      0.9969611
    564000  -647.59589      102.80417     -750.40007      271.56433     -1288.2308      1920.3708      0.9969611
    565000  -658.10339      117.6312      -775.73459      310.73095     -612.57693      1920.3708      0.9969611
    566000  -671.09532      118.97669     -790.07202      314.28516     -126.93131      1920.3708      0.9969611
    567000  -671.97974      104.34091     -776.32065      275.62372      671.58141      1920.3708      0.9969611
    568000  -657.72513      124.58141     -782.30654      329.09041     -1410.4148      1920.3708      0.9969611
    569000  -652.38624      112.60933     -764.99557      297.46533      1813.4814      1920.3708      0.9969611
    570000  -673.32829      107.41075     -780.73903      283.73292      364.16378      1920.3708      0.9969611
    571000  -675.67949      105.69952     -781.379        279.21258     -966.39498      1920.3708      0.9969611
    572000  -667.29832      118.45826     -785.75658      312.91569      420.2705       1920.3708      0.9969611
    573000  -675.49492      106.05515     -781.55007      280.152       -1114.6992      1920.3708      0.9969611
    574000  -631.10613      128.75607     -759.8622       340.11805     -1309.4776      1920.3708      0.9969611
    575000  -635.02294      110.20483     -745.22777      291.11368      3692.6753      1920.3708      0.9969611
    576000  -675.60043      100.07182     -775.67225      264.34662      222.62037      1920.3708      0.9969611
    577000  -647.28916      118.64557     -765.93473      313.41046      1573.1291      1920.3708      0.9969611
    578000  -653.71998      122.8349      -776.55488      324.47688     -1606.7559      1920.3708      0.9969611
    579000  -659.61833      109.9693      -769.58763      290.4915      -831.60986      1920.3708      0.9969611
    580000  -672.91997      110.87348     -783.79345      292.87996      1550.2533      1920.3708      0.9969611
    581000  -666.6655       110.82457     -777.49008      292.75077      76.600628      1920.3708      0.9969611
    582000  -660.6806       114.3211      -775.0017       301.98709     -3873.3614      1920.3708      0.9969611
    583000  -664.70979      111.0124      -775.72219      293.24693     -397.16388      1920.3708      0.9969611
    584000  -648.69354      117.64102     -766.33456      310.75688     -23.985624      1920.3708      0.9969611
    585000  -670.50753      109.00011     -779.50764      287.93131     -1628.0175      1920.3708      0.9969611
    586000  -664.88707      111.7382      -776.62527      295.16419     -409.82604      1920.3708      0.9969611
    587000  -671.75721      93.29826      -765.05547      246.4538       2601.735       1920.3708      0.9969611
    588000  -650.72045      111.69682     -762.41727      295.05488      3406.0841      1920.3708      0.9969611
    589000  -634.71134      106.37649     -741.08784      281.00086      656.58477      1920.3708      0.9969611
    590000  -674.80355      113.6301      -788.43365      300.16177     -462.01621      1920.3708      0.9969611
    591000  -664.29908      102.13423     -766.43332      269.79464      182.18428      1920.3708      0.9969611
    592000  -684.94763      97.727957     -782.67559      258.15515      184.82615      1920.3708      0.9969611
    593000  -648.17203      106.65471     -754.82673      281.73578     -17.419193      1920.3708      0.9969611
    594000  -656.51161      113.16327     -769.67487      298.92859     -2383.5489      1920.3708      0.9969611
    595000  -672.74636      107.06457     -779.81093      282.81845     -3465.9963      1920.3708      0.9969611
    596000  -658.17319      113.25839     -771.43158      299.17987     -1746.7835      1920.3708      0.9969611
    597000  -658.09732      123.58259     -781.6799       326.45194      2217.8897      1920.3708      0.9969611
    598000  -647.69738      125.77994     -773.47732      332.25641     -296.09871      1920.3708      0.9969611
    599000  -652.66223      125.02096     -777.68319      330.25152      2643.6205      1920.3708      0.9969611
    600000  -665.95334      103.55313     -769.50647      273.54274     -158.8896       1920.3708      0.9969611
    601000  -650.38847      119.16915     -769.55762      314.79354     -987.58115      1920.3708      0.9969611
    602000  -673.96563      109.64929     -783.61492      289.64618      1002.7308      1920.3708      0.9969611
    603000  -672.70149      101.82568     -774.52717      268.97957      362.36585      1920.3708      0.9969611
    604000  -659.12872      105.73052     -764.85924      279.29447      973.14988      1920.3708      0.9969611
    605000  -646.11893      122.46625     -768.58518      323.50305     -3303.9011      1920.3708      0.9969611
    606000  -639.51946      111.97871     -751.49818      295.79951      1907.2387      1920.3708      0.9969611
    607000  -651.36342      118.14142     -769.50484      312.07873     -3612.9544      1920.3708      0.9969611
    608000  -634.71109      123.82065     -758.53175      327.08081      1811.8402      1920.3708      0.9969611
    609000  -633.60081      117.8184      -751.41921      311.22545     -250.33354      1920.3708      0.9969611
    610000  -676.77343      105.28186     -782.05529      278.10931     -2050.0572      1920.3708      0.9969611
    611000  -648.14972      119.4341      -767.58382      315.49342     -1919.7931      1920.3708      0.9969611
    612000  -644.39708      108.61461     -753.01169      286.913       -2214.1703      1920.3708      0.9969611
    613000  -636.96776      128.65403     -765.62179      339.84852      2431.5678      1920.3708      0.9969611
    614000  -684.96414      101.39621     -786.36035      267.8451      -1701.6087      1920.3708      0.9969611
    615000  -654.21129      101.07521     -755.2865       266.99714      623.72511      1920.3708      0.9969611
    616000  -635.96794      107.06574     -743.03368      282.82156     -29.751673      1920.3708      0.9969611
    617000  -650.94938      115.71924     -766.66862      305.68036      1663.2695      1920.3708      0.9969611
    618000  -652.5665       113.41641     -765.98291      299.59729     -3101.8929      1920.3708      0.9969611
    619000  -685.85894      107.68146     -793.5404       284.44802      277.34518      1920.3708      0.9969611
    620000  -660.40748      110.64434     -771.05182      292.27467      337.93786      1920.3708      0.9969611
    621000  -665.15981      93.973606     -759.13342      248.23778     -1360.7432      1920.3708      0.9969611
    622000  -658.35466      118.00423     -776.35889      311.71633      764.93635      1920.3708      0.9969611
    623000  -667.25816      106.44324     -773.7014       281.17719      1587.0936      1920.3708      0.9969611
    624000  -658.2524       131.85215     -790.10455      348.29656      2075.2079      1920.3708      0.9969611
    625000  -679.2851       92.790312     -772.07542      245.11202      2498.8795      1920.3708      0.9969611
    626000  -660.84452      101.93608     -762.78059      269.27119      990.64495      1920.3708      0.9969611
    627000  -662.58459      104.57463     -767.15922      276.24111      125.14249      1920.3708      0.9969611
    628000  -639.03027      133.15107     -772.18133      351.72775     -1054.2201      1920.3708      0.9969611
    629000  -648.5098       115.4421      -763.95191      304.94829     -1214.4082      1920.3708      0.9969611
    630000  -671.46046      105.77221     -777.23267      279.4046      -449.13364      1920.3708      0.9969611
    631000  -632.90278      110.68462     -743.5874       292.38107     -689.06956      1920.3708      0.9969611
    632000  -650.69339      109.84575     -760.53914      290.16515     -3601.2136      1920.3708      0.9969611
    633000  -630.53945      126.95087     -757.49032      335.3495       2543.7389      1920.3708      0.9969611
    634000  -661.71883      115.58816     -777.30699      305.33411      218.21328      1920.3708      0.9969611
    635000  -679.56611      105.5351      -785.1012       278.77825     -1894.1305      1920.3708      0.9969611
    636000  -661.69603      112.10967     -773.80569      296.14543      471.68018      1920.3708      0.9969611
    637000  -655.76078      124.38743     -780.14821      328.57799      1482.4962      1920.3708      0.9969611
    638000  -700.52004      97.659794     -798.17983      257.9751       1957.5478      1920.3708      0.9969611
    639000  -654.93083      113.95688     -768.88771      301.02498     -4730.8198      1920.3708      0.9969611
    640000  -668.48111      109.10734     -777.58846      288.21459      2009.4086      1920.3708      0.9969611
    641000  -667.82609      110.80769     -778.63378      292.70617     -679.74761      1920.3708      0.9969611
    642000  -640.64692      120.23025     -760.87717      317.59653      2413.9972      1920.3708      0.9969611
    643000  -658.76927      108.85878     -767.62805      287.55799     -1104.8978      1920.3708      0.9969611
    644000  -646.3926       109.2893      -755.6819       288.69525     -1990.5611      1920.3708      0.9969611
    645000  -673.85594      100.58178     -774.43772      265.69371      328.82062      1920.3708      0.9969611
    646000  -627.08847      123.39685     -750.48532      325.9613      -675.93214      1920.3708      0.9969611
    647000  -644.38691      110.81911     -755.20602      292.73634      83.25263       1920.3708      0.9969611
    648000  -634.95214      118.1639      -753.11604      312.13811     -414.40564      1920.3708      0.9969611
    649000  -652.22         113.39574     -765.61574      299.54268     -1789.7868      1920.3708      0.9969611
    650000  -669.12258      101.19702     -770.3196       267.31892     -380.64588      1920.3708      0.9969611
    651000  -657.61747      122.16768     -779.78515      322.71437     -2901.066       1920.3708      0.9969611
    652000  -666.69162      108.45158     -775.1432       286.48235     -3707.0796      1920.3708      0.9969611
    653000  -673.40276      109.8051      -783.20786      290.05776      910.342        1920.3708      0.9969611
    654000  -672.39284      106.41976     -778.8126       281.11514      514.05409      1920.3708      0.9969611
    655000  -672.81473      106.50451     -779.31924      281.33901     -3058.8781      1920.3708      0.9969611
[...]
   2841000  -657.06989      113.69934     -770.76924      300.34468     -2210.2275      1920.3708      0.9969611
   2842000  -637.46482      113.80032     -751.26514      300.61142     -117.33318      1920.3708      0.9969611
   2843000  -634.7044       125.6426      -760.347        331.8936      -1054.034       1920.3708      0.9969611
   2844000  -637.12563      110.62183     -747.74745      292.21521      1633.3742      1920.3708      0.9969611
   2845000  -674.40765      104.20664     -778.61429      275.26903      472.09654      1920.3708      0.9969611
   2846000  -654.68799      111.19732     -765.8853       293.73539     -2002.2138      1920.3708      0.9969611
   2847000  -650.14251      111.22729     -761.36979      293.81456      472.22087      1920.3708      0.9969611
   2848000  -648.05889      105.07833     -753.13722      277.57166      89.012195      1920.3708      0.9969611
   2849000  -657.93285      105.32674     -763.25959      278.22786     -226.09057      1920.3708      0.9969611
   2850000  -646.18216      112.71635     -758.89851      297.74803      886.2426       1920.3708      0.9969611
   2851000  -638.95474      112.14361     -751.09835      296.23509     -2523.7107      1920.3708      0.9969611
   2852000  -658.37541      110.08769     -768.4631       290.80425     -156.45023      1920.3708      0.9969611
   2853000  -664.1035       97.508217     -761.61172      257.57469     -350.17738      1920.3708      0.9969611
   2854000  -676.5349       108.58934     -785.12424      286.84625     -752.92974      1920.3708      0.9969611
   2855000  -640.92841      113.40748     -754.33589      299.5737       148.12365      1920.3708      0.9969611
   2856000  -657.92067      110.72288     -768.64354      292.48213     -951.4154       1920.3708      0.9969611
   2857000  -655.95485      119.37943     -775.33427      315.34901     -779.7077       1920.3708      0.9969611
   2858000  -652.85367      115.32165     -768.17532      304.63011      149.46332      1920.3708      0.9969611
   2859000  -635.34909      123.39129     -758.74039      325.94663      927.13228      1920.3708      0.9969611
   2860000  -643.31635      119.95643     -763.27278      316.8732      -1099.6817      1920.3708      0.9969611
   2861000  -658.37624      107.64598     -766.02223      284.3543       723.81121      1920.3708      0.9969611
   2862000  -657.2934       104.62652     -761.91992      276.37818      602.05806      1920.3708      0.9969611
   2863000  -668.30347      98.659664     -766.96313      260.61632      63.233805      1920.3708      0.9969611
   2864000  -657.43738      110.24668     -767.68406      291.22422     -3253.6549      1920.3708      0.9969611
   2865000  -650.35738      120.04281     -770.40019      317.10137     -37.874937      1920.3708      0.9969611
   2866000  -679.46639      100.21687     -779.68325      264.72978     -1807.3223      1920.3708      0.9969611
   2867000  -678.44298      114.83303     -793.276        303.33938     -1321.2609      1920.3708      0.9969611
   2868000  -650.8638       120.3105      -771.1743       317.80849      176.27872      1920.3708      0.9969611
   2869000  -660.614        107.09861     -767.71261      282.90838     -1283.34        1920.3708      0.9969611
   2870000  -648.89054      115.33904     -764.22958      304.67604     -887.19604      1920.3708      0.9969611
   2871000  -639.02582      114.58814     -753.61395      302.69249      1773.8836      1920.3708      0.9969611
   2872000  -662.36476      105.218       -767.58276      277.94062     -1996.6587      1920.3708      0.9969611
   2873000  -628.29753      120.9879      -749.28543      319.5979       971.98848      1920.3708      0.9969611
   2874000  -645.76121      117.88341     -763.64462      311.39718     -85.220466      1920.3708      0.9969611
   2875000  -677.39458      105.19169     -782.58627      277.87112     -2097.5705      1920.3708      0.9969611
   2876000  -655.30488      108.16185     -763.46673      285.71701      3415.4554      1920.3708      0.9969611
   2877000  -657.46145      113.5319      -770.99335      299.90237     -618.19493      1920.3708      0.9969611
   2878000  -637.6538       107.0502      -744.704        282.78051      19.240584      1920.3708      0.9969611
   2879000  -665.45612      94.776176     -760.23229      250.35782     -686.20145      1920.3708      0.9969611
   2880000  -650.09901      116.27177     -766.37078      307.13992     -3790.4177      1920.3708      0.9969611
   2881000  -654.95331      94.599946     -749.55325      249.89229     -3344.8974      1920.3708      0.9969611
   2882000  -660.23704      108.36587     -768.60291      286.25593      436.80366      1920.3708      0.9969611
   2883000  -666.9085       105.33589     -772.2444       278.25204      876.34741      1920.3708      0.9969611
   2884000  -663.73134      113.18428     -776.91562      298.98411      705.14691      1920.3708      0.9969611
   2885000  -670.21017      109.31776     -779.52793      288.77042      456.00038      1920.3708      0.9969611
   2886000  -648.84728      117.76788     -766.61516      311.09198     -2152.8215      1920.3708      0.9969611
   2887000  -680.33895      100.57806     -780.91701      265.6839      -9.7375227      1920.3708      0.9969611
   2888000  -655.56023      128.93813     -784.49836      340.59899     -1004.2587      1920.3708      0.9969611
   2889000  -629.76849      112.00757     -741.77606      295.87574      2219.5413      1920.3708      0.9969611
   2890000  -647.78825      106.04103     -753.82927      280.1147       1210.7951      1920.3708      0.9969611
   2891000  -662.53738      112.66433     -775.20171      297.61062     -454.20495      1920.3708      0.9969611
   2892000  -655.27411      116.5033      -771.77741      307.75151     -598.17679      1920.3708      0.9969611
   2893000  -649.34124      102.10427     -751.44551      269.71548     -777.04157      1920.3708      0.9969611
   2894000  -631.2142       123.54051     -754.75471      326.3408       370.77554      1920.3708      0.9969611
   2895000  -669.47367      108.44342     -777.91709      286.46078     -1222.4837      1920.3708      0.9969611
   2896000  -659.15161      111.24383     -770.39543      293.85826      1390.581       1920.3708      0.9969611
   2897000  -648.45432      114.89386     -763.34819      303.50008     -1212.3511      1920.3708      0.9969611
   2898000  -676.22665      88.498331     -764.72498      233.77446     -1592.083       1920.3708      0.9969611
   2899000  -654.87686      99.193361     -754.07022      262.02612     -2217.5034      1920.3708      0.9969611
   2900000  -660.22774      114.5149      -774.74263      302.49901     -1525.851       1920.3708      0.9969611
   2901000  -652.92719      106.26636     -759.19355      280.70995     -6.142484       1920.3708      0.9969611
   2902000  -622.31834      124.62862     -746.94696      329.2151       1889.533       1920.3708      0.9969611
   2903000  -646.2368       111.73896     -757.97576      295.16619      1335.8311      1920.3708      0.9969611
   2904000  -662.52908      111.14354     -773.67262      293.59335     -3050.2189      1920.3708      0.9969611
   2905000  -657.27979      118.01008     -775.28987      311.73178      1984.181       1920.3708      0.9969611
   2906000  -674.34607      107.79938     -782.14546      284.75952      1956.5147      1920.3708      0.9969611
   2907000  -659.14674      109.02996     -768.1767       288.01016      939.59252      1920.3708      0.9969611
   2908000  -643.01458      114.69626     -757.71085      302.97811     -674.44185      1920.3708      0.9969611
   2909000  -672.39852      108.6971      -781.09562      287.13091     -1620.2418      1920.3708      0.9969611
   2910000  -679.12745      99.545055     -778.67251      262.95514     -1519.0501      1920.3708      0.9969611
   2911000  -669.84379      95.599058     -765.44284      252.53152     -3026.4348      1920.3708      0.9969611
   2912000  -665.10032      98.469832     -763.57015      260.11487      1151.3578      1920.3708      0.9969611
   2913000  -646.69855      122.32901     -769.02757      323.14054     -1424.9111      1920.3708      0.9969611
   2914000  -652.35148      109.67537     -762.02686      289.71508     -486.94539      1920.3708      0.9969611
   2915000  -634.01895      112.07745     -746.0964       296.06033     -1526.1611      1920.3708      0.9969611
   2916000  -654.09347      101.84894     -755.94242      269.04102      423.96927      1920.3708      0.9969611
   2917000  -639.83006      114.03302     -753.86309      301.22611      1531.1207      1920.3708      0.9969611
   2918000  -638.02702      120.88855     -758.91556      319.33545      731.98053      1920.3708      0.9969611
   2919000  -636.38059      112.94577     -749.32636      298.35406      89.892151      1920.3708      0.9969611
   2920000  -649.94803      119.80396     -769.75199      316.47044      2342.0147      1920.3708      0.9969611
   2921000  -669.54204      101.47073     -771.01277      268.04194      636.95511      1920.3708      0.9969611
   2922000  -646.38387      116.28616     -762.67004      307.17794      5203.6109      1920.3708      0.9969611
   2923000  -668.56875      106.47195     -775.04069      281.25301      3487.4039      1920.3708      0.9969611
   2924000  -674.21132      106.72629     -780.93761      281.92487     -762.39019      1920.3708      0.9969611
   2925000  -665.18443      110.56942     -775.75384      292.07675      2501.797       1920.3708      0.9969611
   2926000  -649.52679      117.78951     -767.3163       311.14914      212.70471      1920.3708      0.9969611
   2927000  -672.52096      98.719385     -771.24035      260.77408      864.83816      1920.3708      0.9969611
   2928000  -661.85514      98.074694     -759.92984      259.07108     -170.80426      1920.3708      0.9969611
   2929000  -649.77969      106.12448     -755.90417      280.33516     -557.94483      1920.3708      0.9969611
   2930000  -683.1423       106.03372     -789.17602      280.09541      3377.9768      1920.3708      0.9969611
   2931000  -680.25473      111.21212     -791.46686      293.7745      -705.42633      1920.3708      0.9969611
   2932000  -652.82567      100.41498     -753.24065      265.25311      2128.1177      1920.3708      0.9969611
   2933000  -622.79821      131.67974     -754.47795      347.84113     -1665.0092      1920.3708      0.9969611
   2934000  -658.98555      105.27963     -764.26518      278.10342     -760.02306      1920.3708      0.9969611
   2935000  -653.258        104.41205     -757.67005      275.81165     -83.400733      1920.3708      0.9969611
   2936000  -648.30329      106.48421     -754.7875       281.28541      238.73606      1920.3708      0.9969611
   2937000  -669.37112      106.20004     -775.57116      280.53475      1624.8525      1920.3708      0.9969611
   2938000  -620.93457      122.25124     -743.18581      322.9351       7.9904733      1920.3708      0.9969611
   2939000  -654.78529      116.70807     -771.49336      308.29242     -2580.2744      1920.3708      0.9969611
   2940000  -641.65771      112.66925     -754.32697      297.62362     -741.35533      1920.3708      0.9969611
   2941000  -658.39689      106.70609     -765.10298      281.87152     -1233.3748      1920.3708      0.9969611
   2942000  -637.72564      114.36722     -752.09285      302.10891      639.93664      1920.3708      0.9969611
   2943000  -658.58345      114.32721     -772.91066      302.00323     -4173.0862      1920.3708      0.9969611
   2944000  -650.12878      111.97493     -762.1037       295.78951     -1059.8325      1920.3708      0.9969611
   2945000  -640.213        117.49117     -757.70416      310.36104     -1761.9979      1920.3708      0.9969611
   2946000  -650.76389      119.10414     -769.86803      314.62183     -907.41181      1920.3708      0.9969611
   2947000  -600.99944      117.24978     -718.24922      309.72339     -3528.6037      1920.3708      0.9969611
   2948000  -640.61563      124.79089     -765.40652      329.64376      2796.2668      1920.3708      0.9969611
   2949000  -639.00792      134.80854     -773.81646      356.10608      417.95254      1920.3708      0.9969611
   2950000  -657.60399      102.98169     -760.58569      272.03326      783.60721      1920.3708      0.9969611
   2951000  -670.80217      103.31563     -774.1178       272.91537     -296.95117      1920.3708      0.9969611
   2952000  -672.20135      96.29583      -768.49717      254.37209     -224.4968       1920.3708      0.9969611
   2953000  -668.52993      99.874836     -768.40477      263.82628     -573.80875      1920.3708      0.9969611
   2954000  -651.26177      109.94358     -761.20534      290.42355     -478.22621      1920.3708      0.9969611
   2955000  -645.56199      119.48933     -765.05132      315.63931      1965.4404      1920.3708      0.9969611
   2956000  -647.58136      113.00444     -760.5858       298.50902     -2686.6299      1920.3708      0.9969611
   2957000  -660.09604      100.83747     -760.93351      266.36914      1326.0945      1920.3708      0.9969611
   2958000  -661.32217      117.00118     -778.32335      309.06671     -2415.9392      1920.3708      0.9969611
   2959000  -666.15093      106.39249     -772.54342      281.04312      312.96276      1920.3708      0.9969611
   2960000  -640.51157      123.40805     -763.91962      325.99089     -2521.4895      1920.3708      0.9969611
   2961000  -662.33168      107.94303     -770.27471      285.13898     -2116.0277      1920.3708      0.9969611
   2962000  -644.34643      115.16339     -759.50982      304.21206     -775.516        1920.3708      0.9969611
   2963000  -645.56868      121.63911     -767.20779      321.31811      568.47696      1920.3708      0.9969611
   2964000  -679.06598      104.72954     -783.79552      276.65033      1969.7987      1920.3708      0.9969611
   2965000  -673.60853      104.87927     -778.48781      277.04584     -900.22389      1920.3708      0.9969611
   2966000  -651.4245       107.66469     -759.08919      284.40371     -1411.0807      1920.3708      0.9969611
   2967000  -654.46387      112.24702     -766.71089      296.50826     -815.79619      1920.3708      0.9969611
   2968000  -644.89225      118.19372     -763.08598      312.21689     -1533.8113      1920.3708      0.9969611
   2969000  -650.65395      109.59599     -760.24994      289.50538     -1183.219       1920.3708      0.9969611
   2970000  -673.18932      108.62806     -781.81738      286.94854     -206.96944      1920.3708      0.9969611
   2971000  -651.66376      108.44355     -760.10731      286.46113      1636.2143      1920.3708      0.9969611
   2972000  -655.57147      100.60283     -756.1743       265.74933      407.82978      1920.3708      0.9969611
   2973000  -645.18331      111.44183     -756.62515      294.3813      -1715.6564      1920.3708      0.9969611
   2974000  -652.72015      122.34119     -775.06135      323.17271     -2076.8574      1920.3708      0.9969611
   2975000  -648.28512      115.732       -764.01712      305.71409      668.79249      1920.3708      0.9969611
   2976000  -651.39159      118.85029     -770.24188      313.95126     -1482.6777      1920.3708      0.9969611
   2977000  -625.97995      124.78167     -750.76162      329.61941      2283.9581      1920.3708      0.9969611
   2978000  -633.45314      124.52469     -757.97783      328.94057     -944.30507      1920.3708      0.9969611
   2979000  -649.48406      105.00985     -754.49391      277.39077     -142.86376      1920.3708      0.9969611
   2980000  -646.60503      113.66364     -760.26867      300.25036     -1310.9805      1920.3708      0.9969611
   2981000  -673.01944      108.60179     -781.62123      286.87913      1071.6959      1920.3708      0.9969611
   2982000  -654.74306      117.73621     -772.47927      311.00834     -1424.6167      1920.3708      0.9969611
   2983000  -643.60908      114.94463     -758.55371      303.63419      1617.0396      1920.3708      0.9969611
   2984000  -666.70864      110.19148     -776.90012      291.07841     -654.04154      1920.3708      0.9969611
   2985000  -686.35733      93.026256     -779.38358      245.73528     -1093.2027      1920.3708      0.9969611
   2986000  -652.32957      117.80571     -770.13528      311.19192      384.50336      1920.3708      0.9969611
   2987000  -639.82943      120.46033     -760.28977      318.2043       670.91926      1920.3708      0.9969611
   2988000  -639.09535      127.5332      -766.62855      336.88777      2064.8934      1920.3708      0.9969611
   2989000  -646.31981      122.24585     -768.56566      322.92086      1424.8434      1920.3708      0.9969611
   2990000  -667.58453      101.24178     -768.82631      267.43716     -3435.7843      1920.3708      0.9969611
   2991000  -631.19844      117.49715     -748.69559      310.37684      1999.9562      1920.3708      0.9969611
   2992000  -670.38472      115.0847      -785.46942      304.0042       1541.6046      1920.3708      0.9969611
   2993000  -652.62751      117.26968     -769.89719      309.77596     -2104.9922      1920.3708      0.9969611
   2994000  -632.05379      120.41749     -752.47128      318.09112      848.88438      1920.3708      0.9969611
   2995000  -654.32456      113.827       -768.15157      300.6819       2807.2059      1920.3708      0.9969611
   2996000  -637.17956      107.72224     -744.9018       284.55573     -749.59472      1920.3708      0.9969611
   2997000  -667.9342       130.30972     -798.24391      344.22212     -724.52067      1920.3708      0.9969611
   2998000  -666.53915      113.63777     -780.17692      300.18202      1107.2179      1920.3708      0.9969611
   2999000  -670.1937       100.30968     -770.50338      264.97496     -578.38125      1920.3708      0.9969611
   3000000  -647.96114      102.23452     -750.19566      270.05955     -1740.0822      1920.3708      0.9969611
Loop time of 1792.96 on 1 procs for 2000000 steps with 192 atoms

Performance: 96.377 ns/day, 0.249 hours/ns, 1115.476 timesteps/s
99.7% CPU use with 1 MPI tasks x 1 OpenMP threads

MPI task timing breakdown:
Section |  min time  |  avg time  |  max time  |%varavg| %total
---------------------------------------------------------------
Pair    | 1433.2     | 1433.2     | 1433.2     |   0.0 | 79.93
Bond    | 0.16285    | 0.16285    | 0.16285    |   0.0 |  0.01
Kspace  | 235.32     | 235.32     | 235.32     |   0.0 | 13.12
Neigh   | 70.57      | 70.57      | 70.57      |   0.0 |  3.94
Comm    | 26.787     | 26.787     | 26.787     |   0.0 |  1.49
Output  | 0.45505    | 0.45505    | 0.45505    |   0.0 |  0.03
Modify  | 21.911     | 21.911     | 21.911     |   0.0 |  1.22
Other   |            | 4.559      |            |       |  0.25

Nlocal:            192 ave         192 max         192 min
Histogram: 1 0 0 0 0 0 0 0 0 0
Nghost:           4719 ave        4719 max        4719 min
Histogram: 1 0 0 0 0 0 0 0 0 0
Neighs:          69191 ave       69191 max       69191 min
Histogram: 1 0 0 0 0 0 0 0 0 0

Total # of neighbors = 69191
Ave neighs/atom = 360.36979
Ave special neighs/atom = 2
Neighbor list builds = 55081
Dangerous builds = 0

# write data file
write_data data.after_prod.lmp
System init for write_data ...
PPPM initialization ...
  using 12-bit tables for long-range coulomb (src/kspace.cpp:342)
  G vector (1/distance) = 0.31260513
  grid = 12 12 12
  stencil order = 5
  estimated absolute RMS force accuracy = 0.0021455329
  estimated relative force accuracy = 6.4612085e-06
  using double precision FFTW3
  3d grid and FFT values/proc = 6859 1728
Generated 1 of 1 mixed pair_coeff terms from geometric mixing rule

# clean up
undump dPROD
unfix fTHERMO
unfix fMOM
unfix fSHAKE
Total wall time: 0:44:49
